chemical formula,saturation magnetization,compoundradix,stoicentw,Zw,periodw,groupw,meltingTw,miedemaH,valencew,electronegw
Mn2 Si2 Ni2,0.7139564284352182,3.0,1.0986122886681098,47.2388281,3.666666666666666,10.333333333333332,1644.6666666666665,-41.333333333333336,5.0,1.7866666666666666
Mn2 Si4 Ni2,0.25298375566109793,3.0,1.0397207708399179,42.450371075,3.5,11.25,1655.25,-44.5,4.75,1.815
Mn2 Sn1 Ru1,1.3445939151484478,3.0,1.0397207708399179,82.41469715,4.5,9.0,1537.52,-8.0,6.5,1.815
Mn2 Sn1 Sb1 Pd4,0.729409386754156,4.0,1.2130075659799042,97.003861075,4.75,10.375,1469.8825,-29.3125,4.875,1.9887500000000002
Mn2 Sn2,0.8157618566797971,2.0,0.6931471805599453,86.82437215,4.5,10.5,1012.04,-7.0,5.5,1.755
Mn2 Sn4,0.4316113824544986,2.0,0.6365141682948129,97.4531481,4.666666666666666,11.666666666666666,843.0533333333333,-6.222222222222221,5.0,1.8233333333333333
Mn2 Sn6,0.4856750438929988,2.0,0.5623351446188083,102.76753607500001,4.75,12.25,758.56,-5.25,4.75,1.8575
Mn2 Tl6,0.45201611756310844,2.0,0.5623351446188083,167.019511075,5.5,11.5,812.5,8.25,4.0,1.6025
Mn2 V1 Ga1,0.9258280394993746,3.0,1.0397207708399179,57.635174649999996,4.0,8.0,1380.97865,-9.0,5.5,1.635
Mn2 V1 Ge1,0.24782785045708428,3.0,1.0397207708399179,58.36209965,4.0,8.25,1608.1,-24.125,5.75,1.6849999999999998
Mn2 V1 In1,0.7684119295226571,3.0,1.0397207708399179,68.90892465,4.25,8.0,1412.687125,4.0,5.5,1.6275
Mn2 V1 Si1,0.2606876397695296,3.0,1.0397207708399179,47.22564965,3.75,8.25,1727.0,-35.0,5.75,1.6575
Mn2 V1 Sn1,0.21139504750525895,3.0,1.0397207708399179,69.88207465,4.25,8.25,1431.52,-4.25,5.75,1.6725
Mn2 V2 Ga10,0.3034007729438531,3.0,0.7963116401738131,64.9278649,4.0,11.0,745.2247142857143,-8.653061224489795,3.857142857142857,1.7471428571428573
Mn2 V2 Sb2,0.4790120027571184,3.0,1.0986122886681098,75.87988476666666,4.333333333333333,9.0,1535.2599999999998,-8.888888888888888,5.666666666666666,1.7433333333333332
Mn2 V4 Ga4 Co6,0.2459791790094993,4.0,1.3208883431493221,59.1333559375,4.0,8.75,1474.35365,-14.0625,4.75,1.75875
Mn2 Zn1 N2,0.9043398860192697,3.0,1.054920167986144,40.654417720000005,3.2,11.200000000000001,771.396,-106.24000000000001,5.2,2.1660000000000004
Mn2 Zn10 N8,0.26500980499559373,3.0,0.9433483923290392,43.78760443,3.2,12.700000000000001,523.5,-90.64000000000001,3.7,2.196
Mn2 Zn2 N4,0.29476782453825645,3.0,1.0397207708399179,37.083511075000004,3.0,12.25,584.495,-105.0,4.75,2.3200000000000003
Mn2 Zn4 N4,0.5295899852248833,3.0,1.054920167986144,42.74320886,3.2,12.200000000000001,606.1320000000001,-96.32000000000002,4.2,2.1860000000000004
Mn2 Zn4 N6,0.3455814263007255,3.0,1.0114042647073518,37.95384071666667,3.0,12.666666666666668,515.635,-99.66666666666666,4.333333333333333,2.328333333333333
Mn2 Zn6,0.628506026777737,2.0,0.5623351446188083,62.771011075000004,4.0,10.75,899.26,-4.5,3.25,1.6249999999999998
Mn20,0.5636472780555953,1.0,-0.0,54.9380443,4.0,7.0,1519.0,0.0,7.0,1.55
Mn20 Si12 N36,0.9133943493693897,3.0,1.0027399543973452,28.529895382352944,2.764705882352941,12.470588235294118,777.9029411764706,-113.73010380622836,5.411764705882353,2.400588235294118
Mn22,0.8737375208450773,1.0,-0.0,54.9380443,4.0,7.0,1519.0,0.0,7.0,1.55
Mn24 Si32 Mo20,0.3590557502130264,3.0,1.0795295733255184,54.424382410526306,3.8421052631578947,9.684210526315791,1952.1052631578946,-37.78393351800553,5.473684210526316,1.8578947368421053
Mn27 Sb26,0.9048485493827523,2.0,0.6929691707091894,87.7186753981132,4.490566037735849,10.924528301886792,1217.1939622641507,-10.996084015663937,6.018867924528302,1.7952830188679245
Mn28 Ge4 N24,0.23257169598073835,3.0,0.8982053397041498,38.659936435714286,3.142857142857143,10.928571428571429,873.0928571428572,-116.11224489795919,5.928571428571428,2.2214285714285715
Mn28 Sb26,0.9151937086766696,2.0,0.6924611526112329,87.11162667407406,4.481481481481481,10.851851851851851,1222.7829629629628,-10.984910836762689,6.037037037037037,1.7907407407407405
Mn28 Si32 Mo16,0.4487510228779126,3.0,1.0601189359398382,52.26580579473684,3.7894736842105265,9.736842105263158,1879.6315789473683,-38.78116343490304,5.526315789473684,1.8257894736842104
Mn28 Si4 N24,0.24934309574456967,3.0,0.8982053397041498,35.478093578571425,3.0714285714285716,10.928571428571429,907.0642857142857,-118.34693877551021,5.928571428571428,2.2135714285714285
Mn28 Si46,0.4971480027527289,2.0,0.6632646807257362,38.245611356756754,3.3783783783783785,11.35135135135135,1623.4324324324325,-42.33747260774288,5.135135135135135,1.7675675675675675
Mn28 Sn4 N24,0.27830006539160723,3.0,0.8982053397041498,41.95135786428571,3.2142857142857144,10.928571428571429,822.6414285714285,-114.0204081632653,5.928571428571428,2.217857142857143
Mn3 Ag1 N1,1.804146693991699,3.0,0.9502705392332346,57.33787058,3.8,9.4,1171.016,-65.92,6.0,1.9240000000000002
Mn3 Al1,0.7478292033581513,2.0,0.5623351446188083,47.9489178675,3.75,8.5,1372.6175,-14.25,6.0,1.565
Mn3 Al1 N1,0.5964115445982507,3.0,0.9502705392332346,41.160534294,3.4,9.8,1110.7240000000002,-80.96000000000001,5.8,1.86
Mn3 Al2 V3,0.6620057663309693,3.0,1.0821955300387671,46.450217505,3.75,7.75,1621.6175,-13.6875,5.25,1.595
Mn3 Au1 N1,1.5878167656249735,3.0,0.9502705392332346,75.15754048,4.0,9.4,1191.496,-71.68,6.2,2.046
Mn3 B4,1.4411588093761198,2.0,0.6829081047004717,29.722018985714286,2.8571428571428568,10.428571428571429,1993.2857142857142,-31.3469387755102,4.714285714285714,1.8299999999999998
Mn3 B4 Mo3,0.8482318800832684,3.0,1.0888999753452235,49.59071329,3.5,9.1,2264.1,-29.88,5.1,1.929
Mn3 B4 W1,1.1528168321000591,3.0,0.9743147528693494,48.9868916125,3.25,9.875,2206.0,-30.625,4.875,1.89625
Mn3 B8 Mo3,0.5224021966185849,3.0,0.9799711820833054,38.51050949285714,3.071428571428571,10.214285714285714,2288.3571428571427,-31.408163265306115,4.5,1.9607142857142856
Mn3 Bi1,0.44255468853673796,2.0,0.5623351446188083,93.44863347500001,4.5,9.0,1275.425,2.25,6.5,1.6675
Mn3 Cd1,1.88949185349854,2.0,0.5623351446188083,69.307133225,4.25,8.25,1287.805,1.5,5.75,1.585
Mn3 Co20 B6,1.117378879870304,3.0,0.8169151695570781,48.563380031034484,3.586206896551724,9.620689655172415,1862.448275862069,-17.864447086801427,4.793103448275862,1.8789655172413793
Mn3 Co4 Ge6,0.6035546910760047,3.0,1.0579054247036734,64.3332085,4.0,10.846153846153847,1453.646153846154,-27.053254437869825,5.000000000000001,1.8638461538461537
Mn3 Co8 N8,0.28811628187288824,3.0,1.0198652142779299,39.38608884736842,3.1578947368421053,11.210526315789473,1010.8526315789474,-86.16066481994459,5.315789473684211,2.316315789473684
Mn3 Cr3 B8,0.5221195496108697,3.0,0.9799711820833054,29.09161520714286,2.8571428571428568,10.214285714285714,2134.9285714285716,-30.489795918367342,4.5,1.8535714285714284
Mn3 Cr3 Si7 Ni16,0.7064601584681137,4.0,1.140590163392255,50.22388458275862,3.758620689655172,10.241379310344827,1743.2413793103447,-32.837098692033294,4.517241379310345,1.8444827586206898
Mn3 Cu1 N1,1.498471534535358,3.0,0.9502705392332346,48.47348658,3.6,9.4,1195.584,-68.64,6.0,1.9180000000000001
Mn3 Fe1,0.31652000196734875,2.0,0.5623351446188083,55.164833225,4.0,7.25,1592.0,0.0,6.75,1.62
Mn3 Fe3 Ge2,1.2966651947376997,3.0,1.0821955300387671,59.7014166125,4.0,9.125,1551.6,-17.625,5.875,1.77
Mn3 Fe3 Si2,0.6650770991142544,3.0,1.0821955300387671,48.5649666125,3.75,9.125,1670.5,-30.0,5.875,1.7425
Mn3 Fe8 N8,0.8670704450763571,3.0,1.0198652142779299,38.08588067894736,3.1578947368421053,10.789473684210526,1028.957894736842,-93.34072022160663,5.7368421052631575,2.2952631578947367
Mn3 Ga1,0.6821196513776664,2.0,0.5623351446188083,58.634308225,4.0,8.5,1214.97865,-9.75,6.0,1.615
Mn3 Ga1 N1,1.9171235702568488,3.0,0.9502705392332346,49.70884658,3.6,9.8,984.6129199999999,-78.56,5.8,1.9000000000000001
Mn3 Ga4 Ni9,0.8172956035907872,3.0,0.9840865030829147,60.74671830625,4.0,10.1875,1332.54115,-14.25,4.3125,1.8175
Mn3 Ge1,0.2566756532004206,2.0,0.5623351446188083,59.361233225,4.0,8.75,1442.1,-23.625,6.25,1.665
Mn3 Ge3 Pd3,0.826341429190566,3.0,1.0986122886681098,77.99661476666667,4.333333333333333,10.333333333333332,1519.4833333333331,-43.55555555555556,5.0,1.92
Mn3 Ge3 Rh3,1.0727479026221098,3.0,1.0986122886681098,76.8247821,4.333333333333333,10.0,1655.8,-34.22222222222222,5.666666666666666,1.9466666666666663
Mn3 Hg1,1.950036732115827,2.0,0.5623351446188083,91.351608225,4.5,8.25,1197.83025,3.0,6.25,1.6625
Mn3 Hg1 N1,1.7250832865017136,3.0,0.9502705392332346,75.88268658,4.0,9.600000000000001,970.8942,-68.16,6.0,1.9380000000000002
Mn3 N2,1.2394139948740241,2.0,0.6730116670092564,38.56562658,3.2,10.200000000000001,936.66,-114.24,6.2,2.146
Mn3 Nb3 Ge3,0.7702556248065326,3.0,1.0986122886681098,73.49173876666667,4.333333333333333,8.666666666666666,1826.8,-32.0,5.333333333333333,1.7199999999999998
Mn3 Nb3 Si3,0.7735824125473714,3.0,1.0986122886681098,58.64313876666667,4.0,8.666666666666666,1985.3333333333333,-46.666666666666664,5.333333333333333,1.6833333333333333
Mn3 Ni1 N1,1.7991346742600882,3.0,0.9502705392332346,47.50291458,3.6,9.200000000000001,1269.63,-72.0,6.0,1.9200000000000002
Mn3 Ni3 Sn2,0.47962896291483914,3.0,1.0821955300387671,72.2894816125,4.25,9.875,1343.895,-8.625,5.125,1.7875
Mn3 Ni4 Sb1,0.4557920051567285,3.0,0.9743147528693494,65.1684991125,4.125,9.5,1546.5974999999999,-8.3125,5.25,1.7925
Mn3 Ni4 Sn1,1.4051678916030375,3.0,0.9743147528693494,64.7873241125,4.125,9.375,1496.76,-8.3125,5.125,1.78125
Mn3 Pd1 N1,1.8142053716285955,3.0,0.9502705392332346,57.048426580000005,3.8,9.200000000000001,1289.64,-78.08,6.0,1.9780000000000002
Mn3 Pd5,1.3502068341224078,2.0,0.6615632381579821,87.1148916125,4.625,8.875,1712.15625,-21.5625,5.125,1.95625
Mn3 Pt1,2.138082891350978,2.0,0.5623351446188083,89.974758225,4.5,7.75,1649.6,-21.0,6.75,1.7325
Mn3 Pt1 N1,2.0449792494339047,3.0,0.9502705392332346,74.78120658,4.0,9.200000000000001,1332.3100000000002,-78.88000000000001,6.4,1.994
Mn3 Re1,0.9118528260590497,2.0,0.5623351446188083,87.755308225,4.5,7.0,2004.0,-0.75,7.0,1.6375000000000002
Mn3 Rh1,0.48836503476440263,2.0,0.5623351446188083,66.929908725,4.25,7.5,1698.5,-12.0,6.75,1.7325
Mn3 Rh1 N1,1.503823962719308,3.0,0.9502705392332346,56.34532698,3.8,9.0,1371.43,-74.88,6.4,1.994
Mn3 Sb1,0.8486192191703643,2.0,0.5623351446188083,71.64355822499999,4.25,9.0,1365.195,-8.25,6.5,1.675
Mn3 Sb1 N1,0.8759021852727544,3.0,0.9502705392332346,60.11624658,3.8,10.200000000000001,1104.786,-74.24,6.2,1.948
Mn3 Sb2,0.9865933117419085,2.0,0.6730116670092564,81.66686658,4.4,10.2,1272.912,-10.559999999999999,6.2,1.75
Mn3 Si1,0.281213979784101,2.0,0.5623351446188083,48.224783225,3.75,8.75,1561.0,-33.75,6.25,1.6375
Mn3 Si6 Pd9,0.438195102615518,3.0,1.0114042647073516,71.72850738333334,4.166666666666667,10.833333333333334,1729.5249999999999,-54.33333333333333,4.5,1.9916666666666667
Mn3 Sn1,1.451125728833746,2.0,0.5623351446188083,70.881208225,4.25,8.75,1265.52,-5.25,6.25,1.6525
Mn3 Sn1 H1,1.8431326507132402,3.0,0.9502705392332346,56.90656658,3.6,7.2,1015.2139999999999,-20.32,5.2,1.7620000000000002
Mn3 Sn1 N1,0.5890287169224709,3.0,0.9502705392332346,59.506366580000005,3.8,10.0,1025.046,-74.88,6.0,1.9300000000000002
Mn3 Tl1,1.808429271451618,2.0,0.5623351446188083,92.298533225,4.5,8.5,1283.5,8.25,6.0,1.5675000000000001
Mn3 V2 Ga2 Co1,0.23884555738853305,4.0,1.3208883431493221,58.1345684125,4.0,8.25,1412.10365,-11.3125,5.25,1.67625
Mn3 Zn1,1.0307943486903377,2.0,0.5623351446188083,57.549033225,4.0,8.25,1312.42,-4.5,5.75,1.575
Mn3 Zn1 N1,1.9283448689514724,3.0,0.9502705392332346,48.84062658,3.6,9.600000000000001,1062.566,-74.08,5.6,1.868
Mn3 Zn8 N8,0.40716672939355253,3.0,1.0198652142779299,42.10137541578947,3.1578947368421053,12.473684210526315,558.0863157894736,-95.64542936288086,4.052631578947368,2.2194736842105263
Mn30 Ge12,1.1042748761666439,2.0,0.5982695885852573,59.99311735714286,4.0,9.0,1431.1142857142856,-25.714285714285715,6.142857142857143,1.6814285714285713
Mn32 Si32 Mo12,0.434039414591489,3.0,1.0198652142779299,50.107229178947364,3.7368421052631575,9.789473684210526,1807.157894736842,-39.889196675900266,5.578947368421052,1.7936842105263158
Mn32 Sn20,1.1742914814472842,2.0,0.666278442414676,79.4659888,4.384615384615385,9.692307692307693,1129.0307692307692,-6.627218934911243,5.846153846153847,1.7076923076923078
Mn36 Nb8 Ge32,0.9253529245391541,3.0,0.9551311954514641,66.38429172105263,4.105263157894736,9.736842105263158,1519.0631578947368,-32.398891966758995,5.526315789473684,1.7489473684210524
Mn39 In13,1.1525114980325655,2.0,0.5623351446188083,69.908058225,4.25,8.5,1246.687125,2.25,6.0,1.6075
Mn4 Ag4 N4,0.24965510117419262,3.0,1.0986122886681098,58.93775476666666,3.6666666666666665,11.0,939.0266666666666,-88.88888888888889,5.333333333333333,2.1733333333333333
Mn4 B4,1.460509435238502,2.0,0.6931471805599453,32.87402215,3.0,10.0,1934.0,-32.0,5.0,1.795
Mn4 B8 H32,0.6772849017240179,3.0,0.7595473914748635,7.692913118181819,1.4545454545454546,3.7272727272727275,575.3563636363637,-8.462809917355372,1.9090909090909092,2.1118181818181823
Mn4 B8 H68 N12,0.2357017354688136,4.0,0.8378090821865457,5.9006541,1.3478260869565217,4.130434782608696,288.88173913043477,-14.480151228733456,1.9565217391304348,2.2673913043478264
Mn4 Be8,0.6233365767682016,2.0,0.6365141682948129,24.320803533333333,2.6666666666666665,3.6666666666666665,1546.3333333333333,-8.88888888888889,3.6666666666666665,1.5633333333333332
Mn4 Bi1 Sb3,0.9009760946818,3.0,0.9743147528693494,99.251609775,4.625,11.0,1166.505,-7.3125,6.0,1.79625
Mn4 Bi4,0.7580351370524012,2.0,0.6931471805599453,131.95922265000002,5.0,11.0,1031.85,3.0,6.0,1.7850000000000001
Mn4 Cd2 N4,0.5839911001725402,3.0,1.054920167986144,50.06089772000001,3.4000000000000004,11.200000000000001,751.7040000000001,-104.64000000000001,5.2,2.1740000000000004
Mn4 Co1 Ni3 Ge4,0.9075374902240613,4.0,1.2860573368743793,62.107407633333324,4.0,10.25,1489.4666666666667,-27.444444444444446,5.083333333333333,1.820833333333333
Mn4 Co11 Ge5,1.1619662709636152,3.0,0.9972715231823839,61.55856578,4.0,9.850000000000001,1579.05,-20.325,5.15,1.8465
Mn4 Co2 N4,1.082134103401909,3.0,1.054920167986144,39.3646566,3.2,10.600000000000001,986.46,-101.76000000000002,5.800000000000001,2.212
Mn4 Co4 Ge4,1.1979259772039639,3.0,1.0986122886681098,62.167346233333326,4.0,10.0,1499.4666666666665,-25.77777777777778,5.333333333333333,1.8133333333333332
Mn4 Co4 Si2 Ge2,1.132253624957807,4.0,1.3296613488547582,54.743046233333324,3.833333333333333,10.0,1578.7333333333331,-34.05555555555556,5.333333333333333,1.795
Mn4 Co4 Si3 Ge1,1.1266919952340924,4.0,1.286057336874379,51.03089623333333,3.75,10.0,1618.3666666666666,-36.98611111111111,5.333333333333333,1.7858333333333332
Mn4 Co4 Si4,1.1244530998553528,3.0,1.0986122886681098,47.31874623333333,3.666666666666666,10.0,1657.9999999999998,-39.11111111111111,5.333333333333333,1.7766666666666666
Mn4 Co6 Ge2,1.6907477370943367,3.0,1.0114042647073518,59.88441196666666,4.0,9.166666666666666,1592.2333333333333,-17.5,5.5,1.7916666666666665
Mn4 Cr1 Co10 Ge5,1.1889017854872748,4.0,1.1648213767244648,61.211714060000006,4.0,9.700000000000001,1599.6499999999999,-20.295,5.2,1.8355
Mn4 Cr1 Co10 Si5,1.2464694069088087,4.0,1.1648213767244648,50.07526406,3.75,9.700000000000001,1718.55,-32.17,5.2,1.808
Mn4 Cr1 Co10 Sn5,1.041708201078793,4.0,1.1648213767244648,72.73168906,4.25,9.700000000000001,1423.07,-3.22,5.2,1.823
Mn4 Cr1 Ga5 Co10,0.9573645605095573,4.0,1.1648213767244648,60.484789060000004,4.0,9.450000000000001,1372.52865,-10.47,4.95,1.7855
Mn4 Cr2 N6,0.5959698970456302,3.0,1.0114042647073518,33.9822081,3.0,10.833333333333332,901.2416666666667,-114.55555555555554,5.833333333333333,2.3133333333333335
Mn4 Cu2 N4,1.3552837844053371,3.0,1.054920167986144,40.287277720000006,3.2,11.0,904.414,-101.76000000000002,5.6000000000000005,2.216
Mn4 Cu6 Ge2,1.0850934594491919,3.0,1.0114042647073518,62.19096476666666,4.0,10.166666666666666,1387.1183333333333,-8.166666666666666,5.0,1.8016666666666665
Mn4 Fe2 N4,0.8316710060508727,3.0,1.054920167986144,38.74705772000001,3.2,10.4,995.0600000000001,-104.00000000000001,6.0,2.2020000000000004
Mn4 Fe8 Si1 Ge3,0.7601176823673063,4.0,1.18030455699462,57.030698575,3.9375,9.25,1617.825,-19.5859375,5.75,1.798125
Mn4 Fe8 Si3 Ge1,0.7880872757351334,4.0,1.18030455699462,51.462473575,3.8125,9.25,1677.275,-26.1484375,5.75,1.784375
Mn4 Ga10,0.49889575908268086,2.0,0.5982695885852573,65.49879837142858,4.0,11.285714285714286,650.3675714285714,-10.612244897959183,4.142857142857142,1.7357142857142858
Mn4 Ga2 Cu6,1.1960183487225495,3.0,1.0114042647073518,61.7063481,4.0,10.0,1235.7041,0.11111111111111116,4.833333333333333,1.768333333333333
Mn4 Ga3 Co8 Ge1,1.062683153224065,4.0,1.18030455699462,60.813614525000006,4.0,9.5625,1396.2589874999999,-14.4453125,5.0625,1.7924999999999998
Mn4 Ge2,1.3653466458469403,2.0,0.6365141682948129,60.835629533333325,4.0,9.333333333333332,1416.4666666666667,-28.0,6.0,1.7033333333333331
Mn4 Ge4,0.8861061056129622,2.0,0.6931471805599453,63.78442215,4.0,10.5,1365.2,-31.5,5.5,1.7799999999999998
Mn4 Ge4 N8,1.177130415533165,3.0,1.0397207708399179,38.895711075,3.0,12.75,714.1750000000001,-106.625,5.25,2.41
Mn4 Ge8 Pd12,0.4716103267497837,3.0,1.0114042647073518,86.57710738333333,4.5,10.833333333333334,1570.9916666666668,-43.666666666666664,4.5,2.0283333333333333
Mn4 Hg10,0.5974808855740427,2.0,0.5982695885852573,158.97679837142857,5.428571428571429,10.571428571428571,601.3721428571429,3.2653061224489797,4.857142857142858,1.8714285714285714
Mn4 Hg3 Au1,1.2910355941535527,3.0,0.9743147528693494,127.3119558375,5.0,9.375,1014.536625,-0.5,5.625,1.8424999999999998
Mn4 In1 Sb3,0.8804479881460101,3.0,0.9743147528693494,87.48132215000001,4.5,10.75,1152.1360625,-8.25,5.75,1.7662499999999999
Mn4 In4 Cu4,0.8433332049237554,3.0,1.0986122886681098,77.76748143333333,4.333333333333333,10.333333333333332,1102.1728333333333,7.555555555555555,4.666666666666666,1.7433333333333332
Mn4 N1,1.8437692631573004,2.0,0.5004024235381879,46.75183544000001,3.6,8.600000000000001,1227.8300000000002,-76.16000000000001,6.6000000000000005,1.8480000000000003
Mn4 Nb2 N6,0.2393498864934962,3.0,1.0114042647073518,40.800576766666666,3.1666666666666665,10.666666666666666,996.2416666666667,-138.22222222222223,5.666666666666666,2.3033333333333332
Mn4 Ni2 N4,1.027849585206131,3.0,1.054920167986144,39.31670572000001,3.2,10.8,978.46,-100.80000000000001,5.6000000000000005,2.218
Mn4 Ni4 Ge4,0.9736067702783071,3.0,1.0986122886681098,62.0874281,4.0,10.333333333333332,1486.1333333333332,-28.0,5.0,1.8233333333333333
Mn4 Pb2 N4,0.5380127608420124,3.0,1.054920167986144,69.02001772000001,3.6000000000000005,11.600000000000001,752.982,-100.16000000000003,5.6000000000000005,2.2100000000000004
Mn4 Pd8,1.151347540138521,2.0,0.6365141682948129,89.26001476666667,4.666666666666666,9.0,1725.033333333333,-20.444444444444443,5.0,1.9833333333333334
Mn4 Pt4 N8,0.25965013964528494,3.0,1.0397207708399179,69.509236075,3.5,11.75,921.6750000000001,-92.5,5.75,2.4775
Mn4 Sb2,1.5355924315316187,2.0,0.6365141682948129,77.21206286666666,4.333333333333333,9.666666666666666,1313.9266666666667,-9.777777777777777,6.333333333333333,1.7166666666666666
Mn4 Sb2 N2,0.7923685374525693,3.0,1.0397207708399179,61.41079715,3.75,11.0,1001.2325,-83.5,6.0,2.0475000000000003
Mn4 Si2 Ni4 Ge2,0.9119075379878584,4.0,1.3296613488547582,54.663128099999994,3.833333333333333,10.333333333333332,1565.3999999999999,-36.27777777777778,5.0,1.805
Mn4 Si3 Ni5,1.217753090640824,3.0,1.077556327066801,49.78953143333334,3.75,10.0,1648.0833333333333,-36.111111111111114,5.0,1.7874999999999999
Mn4 Si4,0.5156644133849166,2.0,0.6931471805599453,41.511522150000005,3.5,10.5,1603.0,-45.0,5.5,1.725
Mn4 Si4 N8,1.3089795293103204,3.0,1.0397207708399179,27.759261075,2.75,12.75,833.075,-111.25,5.25,2.3825000000000003
Mn4 Si4 Ni4,0.9928757648665385,3.0,1.0986122886681098,47.2388281,3.666666666666666,10.333333333333332,1644.6666666666665,-41.333333333333336,5.0,1.7866666666666666
Mn4 Si4 Rh4,0.9734096155322061,3.0,1.0986122886681098,61.976182099999996,4.0,10.0,1814.3333333333333,-47.55555555555556,5.666666666666666,1.9099999999999997