chemical formula,saturation magnetization,compoundradix,stoicentw,Zw,periodw,groupw,meltingTw,miedemaH,valencew,electronegw
Cr1 In1 Co2,0.6795853965180916,3.0,1.0397207708399179,71.1701622,4.25,9.25,1536.437125,6.5,4.75,1.8
Cr1 In1 Cu2,0.6509482569478027,3.0,1.0397207708399179,73.47671500000001,4.25,10.25,1331.3221250000001,16.0,4.25,1.81
Cr1 In1 Ni2,0.7215595548722608,3.0,1.0397207708399179,71.050285,4.25,9.75,1516.437125,2.5,4.25,1.815
Cr1 In3,0.4318884175699617,2.0,0.5623351446188083,99.112615,4.75,11.25,867.311375,15.0,3.75,1.75
Cr1 N1,0.9327018005814689,2.0,0.6931471805599453,33.001580000000004,3.0,10.5,1121.575,-107.0,5.5,2.35
Cr1 N2,0.4810369613216408,2.0,0.6365141682948129,26.670053333333335,2.6666666666666665,12.0,768.7666666666667,-95.1111111111111,5.333333333333333,2.5799999999999996
Cr1 Ni1,1.430035369757045,2.0,0.6931471805599453,55.344800000000006,4.0,8.0,1954.0,-7.0,5.0,1.785
Cr1 Ni1 Sb1,0.6819862145787621,3.0,1.0986122886681098,77.48323333333333,4.333333333333333,10.333333333333334,1603.9266666666667,-0.44444444444444464,5.0,1.873333333333333
Cr1 Ni1 Sb2,0.5079640308529813,3.0,1.0397207708399179,88.55245,4.5,11.5,1428.8899999999999,1.25,5.0,1.9175
Cr1 Ni2 Hg1,0.8124047597794798,3.0,1.0397207708399179,92.49383499999999,4.5,9.5,1467.58025,5.75,4.5,1.8699999999999999
Cr1 Ni3,0.534606744309865,2.0,0.5623351446188083,57.01912,4.0,9.0,1841.0,-5.25,4.5,1.8475
Cr1 Ni3 Sb4,0.2558346352669297,3.0,0.9743147528693494,89.38961,4.5,12.0,1372.3899999999999,-0.3125,4.75,1.94875
Cr1 Pd1,0.3472922481425755,2.0,0.6931471805599453,79.20858000000001,4.5,8.0,2004.025,-15.0,5.0,1.9300000000000002
Cr1 Pd3,0.5777461257219754,2.0,0.5623351446188083,92.81479000000002,4.75,9.0,1916.0375,-11.25,4.5,2.065
Cr1 Pt1,0.886051430044796,2.0,0.6931471805599453,123.54053,5.0,8.0,2110.7,-24.0,6.0,1.9699999999999998
Cr1 Pt3,0.5769276522026654,2.0,0.5623351446188083,159.312715,5.5,9.0,2076.05,-18.0,6.0,2.125
Cr1 Pt4,0.22072194133831383,2.0,0.5004024235381879,166.46715200000003,5.6000000000000005,9.200000000000001,2069.12,-15.360000000000003,6.0,2.156
Cr1 Re3 B4,0.21827555768200987,3.0,0.9743147528693494,81.7321825,3.75,9.875,2744.125,-27.25,4.875,1.94
Cr1 Rh3,0.3599019548989483,2.0,0.5623351446188083,90.1781665,4.75,8.25,2222.75,-9.75,6.0,2.125
Cr1 Si1 Ru2,0.4586418842621869,3.0,1.0397207708399179,70.55629,4.25,9.0,2270.25,-34.25,6.5,1.9900000000000002
Cr1 Sn1 Rh2,0.6154266836893099,3.0,1.0397207708399179,94.12946600000001,4.75,9.5,1789.77,-10.5,5.5,2.045
Cr1 Sn1 Ru2,0.3872668203186877,3.0,1.0397207708399179,93.212715,4.75,9.0,1974.77,-1.5,6.5,2.005
Cr1 W1 N2,0.6447184417968682,3.0,1.0397207708399179,65.96279,3.5,10.5,1500.325,-104.75,5.5,2.525
Cr10 Ge4 N12,0.28488084278792886,3.0,1.0123308391031736,37.63726153846154,3.0769230769230775,11.384615384615385,1053.976923076923,-102.65088757396451,5.230769230769231,2.350769230769231
Cr10 Si4 N12,0.48462294776773224,3.0,1.0123308391031736,30.784061538461543,2.9230769230769234,11.384615384615385,1127.1461538461538,-107.73964497041422,5.230769230769231,2.333846153846154
Cr10 Si6 B2,0.4089895657888034,3.0,0.9368883075390159,39.449533333333335,3.4444444444444446,9.444444444444445,2034.4444444444443,-37.1358024691358,5.0,1.7822222222222222
Cr12 N16,0.8243987248092797,2.0,0.6829081047004717,30.28806857142857,2.8571428571428568,11.142857142857142,970.3714285714285,-104.81632653061223,5.428571428571428,2.4485714285714284
Cr12 N8,0.23963571878673345,2.0,0.6730116670092564,36.800496,3.2,9.6,1333.26,-102.72,5.6,2.212
Cr16 Co14,0.6065966289601988,2.0,0.6909233093138181,55.23344272,4.0,7.4,1987.7333333333336,-3.982222222222222,5.533333333333333,1.7626666666666666
Cr16 Si16 N32,0.8243766867636629,3.0,1.0397207708399179,27.02379,2.75,12.5,998.325,-103.25,5.0,2.41
Cr18 Co12,0.2741959181122679,2.0,0.6730116670092564,54.770973760000004,4.0,7.2,2015.2,-3.84,5.6,1.748
Cr18 N24,0.24658421450802226,2.0,0.6829081047004717,30.28806857142857,2.8571428571428568,11.142857142857142,970.3714285714285,-104.81632653061223,5.428571428571428,2.4485714285714284
Cr2 B2 N4,0.8643555369092228,3.0,1.0397207708399179,22.70504,2.5,12.25,1163.825,-75.25,4.75,2.4450000000000003
Cr2 Co2 B2,0.3851256537231944,3.0,1.0986122886681098,40.5797848,3.333333333333333,9.333333333333334,2099.0,-26.22222222222222,4.666666666666666,1.8599999999999999
Cr2 Co2 Ge2,0.7579966511768826,3.0,1.0986122886681098,61.18671813333333,4.0,9.666666666666666,1719.7999999999997,-19.555555555555557,5.0,1.8499999999999999
Cr2 Co2 Si4,0.19868739018902828,3.0,1.0397207708399179,41.7748386,3.5,10.75,1830.5,-38.5,4.75,1.835
Cr2 Co21 B6,0.8249181558176667,3.0,0.7441295414112981,48.49825525517241,3.586206896551724,9.620689655172415,1916.6206896551726,-16.951248513674194,4.655172413793103,1.8979310344827585
Cr2 Co6,0.3272955689467908,2.0,0.5623351446188083,57.1989358,4.0,8.25,1871.0,-3.0,5.25,1.825
Cr2 Fe2 B4,0.7405072778940384,3.0,1.0397207708399179,32.36534,3.0,10.0,2172.25,-28.75,4.5,1.8925
Cr2 Fe2 Co2 Ni2,0.2917483531026346,4.0,1.3862943611198906,56.3669986,4.0,8.25,1871.75,-3.75,5.25,1.82
Cr2 Fe2 Ge4,0.44005189134347705,3.0,1.0397207708399179,63.27574,4.0,10.5,1603.45,-17.25,5.0,1.8775
Cr2 Fe2 N4,0.7997525695746343,3.0,1.0397207708399179,33.963840000000005,3.0,11.0,1029.325,-97.25,5.5,2.3925
Cr2 Fe2 Si4,0.3361813236935186,3.0,1.0397207708399179,41.00284,3.5,10.5,1841.25,-36.25,5.0,1.8225
Cr2 Fe4 N6,0.19630532874252266,3.0,1.0114042647073518,34.28459333333333,3.0,11.166666666666666,998.575,-93.88888888888889,5.5,2.4066666666666667
Cr2 Fe6 N6,0.8915735319041932,3.0,1.0042424730540764,37.36467999999999,3.142857142857143,10.714285714285714,1114.6357142857141,-90.3673469387755,5.571428571428571,2.3242857142857143
Cr2 Fe9 N8,0.49933826856899527,3.0,0.955131195451464,37.82395368421052,3.1578947368421053,10.736842105263158,1113.9052631578948,-88.57617728531855,5.578947368421053,2.3215789473684207
Cr2 Ga4 N6,0.49564100830105473,3.0,1.0114042647073518,38.910560000000004,3.0,12.833333333333332,495.8798666666666,-99.22222222222221,4.5,2.4
Cr2 In6,0.46218847465129015,2.0,0.5623351446188083,99.112615,4.75,11.25,867.311375,15.0,3.75,1.75
Cr2 N4,0.9369428118833565,2.0,0.6365141682948129,26.670053333333335,2.6666666666666665,12.0,768.7666666666667,-95.1111111111111,5.333333333333333,2.5799999999999996
Cr2 Ni2 N4,0.23356306097582305,3.0,1.0397207708399179,34.675900000000006,3.0,11.5,1008.575,-89.75,5.0,2.4125
Cr2 Ni4,1.3059454621067577,2.0,0.6365141682948129,56.461013333333334,4.0,8.666666666666666,1878.6666666666665,-6.222222222222221,4.666666666666666,1.8266666666666664
Cr2 Pb2 N4,0.3470711446690146,3.0,1.0397207708399179,71.80504,3.5,12.5,726.7275000000001,-87.5,5.0,2.4025
Cr2 Pb4,0.6177446268136588,2.0,0.6365141682948129,155.47205333333332,5.333333333333333,11.333333333333332,1127.0733333333333,24.888888888888886,4.666666666666666,1.7999999999999998
Cr2 Re1 W1,0.21712695481740107,3.0,1.0397207708399179,118.51010500000001,5.0,6.25,2878.5,-2.5,6.25,1.895
Cr2 Sb2,0.806147618440244,2.0,0.6931471805599453,86.87813,4.5,10.5,1541.8899999999999,7.0,5.5,1.855
Cr2 Sb4,0.4407660656415029,2.0,0.6365141682948129,98.50545333333332,4.666666666666666,12.0,1329.1866666666665,6.222222222222221,5.333333333333333,1.9199999999999997
Cr2 Si14 N20,0.212874205204609,3.0,0.8544149816001841,21.59228666666667,2.5,14.11111111111111,812.25,-86.4074074074074,4.666666666666667,2.52
Cr2 Sn9 Au1,0.2741842996050191,3.0,0.7214636866925115,114.11293245833335,4.916666666666667,12.416666666666666,853.5875,2.5,4.416666666666667,1.9583333333333333
Cr20 Si12 N36,0.4658246088332229,3.0,1.0027399543973452,27.664635294117648,2.764705882352941,12.176470588235293,972.314705882353,-104.59515570934256,5.11764705882353,2.4329411764705884
Cr24 N16,0.4500626862678298,2.0,0.6730116670092564,36.800496,3.2,9.6,1333.26,-102.72,5.6,2.212
Cr24 Pb12 N48,0.23484393278677457,3.0,0.9556998911125343,52.46147428571428,3.142857142857143,12.285714285714285,744.7442857142856,-92.08163265306122,5.142857142857142,2.4785714285714286
Cr3 Fe1,0.598619471139892,2.0,0.5623351446188083,52.958420000000004,4.0,6.5,2087.75,-0.75,6.0,1.7025
Cr3 N2,0.5207597657657457,2.0,0.6730116670092564,36.800496,3.2,9.6,1333.26,-102.72,5.6,2.212
Cr3 N4,0.5534929044517617,2.0,0.6829081047004717,30.28806857142857,2.8571428571428568,11.142857142857142,970.3714285714285,-104.81632653061223,5.428571428571428,2.4485714285714284
Cr3 N6,0.7027610142061094,2.0,0.6365141682948129,26.670053333333335,2.6666666666666665,12.0,768.7666666666667,-95.1111111111111,5.333333333333333,2.5799999999999996
Cr3 Ni1,0.8674496531312974,2.0,0.5623351446188083,53.670480000000005,4.0,7.0,2067.0,-5.25,5.5,1.7225
Cr3 Ni1 B6,0.20877259815900764,3.0,0.8979457248567798,27.954192000000003,2.8,10.6,2236.2,-28.92,4.0,1.9129999999999998
Cr3 Ni1 Sb4,0.6604910818364714,3.0,0.9743147528693494,87.71529,4.5,11.0,1485.3899999999999,3.6875,5.25,1.88625
Cr3 Ni1 Sn8,0.31118177156546023,3.0,0.8239592165010823,97.03062666666668,4.666666666666666,11.666666666666666,1025.72,5.194444444444444,4.5,1.8808333333333334
Cr3 Pt1 N1,1.3228799605629182,3.0,0.9502705392332346,73.016076,4.0,8.6,1728.91,-71.2,5.8,2.06
Cr3 Sn1 N1,0.5475134296445324,3.0,0.9502705392332346,57.74123600000001,3.8,9.4,1421.6460000000002,-60.96,5.4,1.996
Cr4 Bi4,0.8636357212341932,2.0,0.6931471805599453,130.4882805,5.0,10.5,1362.35,24.0,5.5,1.8399999999999999
Cr4 Cd2 N4,0.30211117154862976,3.0,1.054920167986144,48.884144000000006,3.4000000000000004,10.8,1016.104,-92.16000000000003,4.800000000000001,2.218
Cr4 Co4 Si4,0.3334562668281872,3.0,1.0986122886681098,46.33811813333333,3.666666666666666,9.666666666666666,1878.333333333333,-35.11111111111111,5.0,1.8133333333333332
Cr4 Fe2,0.5866268381099777,2.0,0.6365141682948129,53.27917333333333,4.0,6.666666666666666,2057.0,-0.8888888888888888,6.0,1.7166666666666666
Cr4 Fe6 N8,0.47997275255731603,3.0,1.0608569471580214,36.39510222222222,3.111111111111111,10.666666666666666,1116.1777777777777,-94.12345679012344,5.555555555555555,2.33
Cr4 Fe8 N12,0.23391813628582062,3.0,1.0114042647073518,34.28459333333333,3.0,11.166666666666666,998.575,-93.88888888888889,5.5,2.4066666666666667
Cr4 Ga2 N2,0.5110157001037664,3.0,1.0397207708399179,46.930605,3.5,10.0,1181.51615,-77.75,5.0,2.0425
Cr4 Ga4 N8,0.7435636420962557,3.0,1.0397207708399179,37.433315,3.0,12.25,652.3036500000001,-101.25,4.75,2.3875
Cr4 Ge4,0.41320143391912567,2.0,0.6931471805599453,62.31348,4.0,10.0,1695.7,-18.5,5.0,1.835
Cr4 Ge4 N8,0.9609591834240444,3.0,1.0397207708399179,38.16024,3.0,12.5,879.4250000000001,-97.375,5.0,2.4375
Cr4 In2 Pd4,1.0126463617446209,3.0,1.054920167986144,86.330484,4.6,9.0,1689.1697,-13.120000000000001,4.6000000000000005,1.9000000000000001
Cr4 N8,0.9361271737949242,2.0,0.6365141682948129,26.670053333333335,2.6666666666666665,12.0,768.7666666666667,-95.1111111111111,5.333333333333333,2.5799999999999996
Cr4 Sb4 Pt4,0.5197791201677897,3.0,1.0986122886681098,122.94705333333333,5.0,10.333333333333334,1708.3933333333334,-15.11111111111111,5.666666666666666,1.9966666666666664
Cr4 Si4 Ni4,0.6454240036338459,3.0,1.0986122886681098,46.2582,3.666666666666666,9.999999999999998,1865.0,-37.33333333333333,4.666666666666666,1.8233333333333333
Cr44 Ge76,0.2934739822334711,2.0,0.6571577614973405,65.06476533333333,4.0,11.066666666666666,1566.5533333333333,-17.18444444444444,4.733333333333333,1.8816666666666666
Cr5 Ni1 Sn12,0.27148336755987496,3.0,0.7867012379169144,96.84459111111111,4.666666666666666,11.555555555555554,1038.2755555555555,6.382716049382715,4.555555555555555,1.8738888888888887
Cr6 Ag3 N9,0.5573727805696367,3.0,1.0114042647073518,42.31359,3.1666666666666665,11.333333333333332,964.0633333333333,-96.66666666666666,5.166666666666666,2.395
Cr6 Ga4 N8,0.20633444098154605,3.0,1.0608569471580214,39.051408888888886,3.111111111111111,11.555555555555555,822.0476888888888,-101.23456790123456,4.888888888888888,2.3066666666666666
Cr6 N4,0.4275912428270755,2.0,0.6730116670092564,36.800496,3.2,9.6,1333.26,-102.72,5.6,2.212
Cr6 N8,0.7164138710877292,2.0,0.6829081047004717,30.28806857142857,2.8571428571428568,11.142857142857142,970.3714285714285,-104.81632653061223,5.428571428571428,2.4485714285714284
Cr6 Pt2,0.26564895901360785,2.0,0.5623351446188083,87.76834500000001,4.5,7.0,2145.35,-18.0,6.0,1.815
Cr6 Si10,0.3046302464226317,2.0,0.6615632381579821,37.051685000000006,3.375,11.0,1871.875,-34.6875,4.75,1.81
Cr6 Si12 N22,0.46246034795399377,3.0,0.9745701894462543,23.928774,2.6,13.350000000000001,867.8324999999999,-95.43,4.8500000000000005,2.491
Cr6 Si7 Ni16,0.6109536481929826,3.0,0.997180401897094,49.91955172413793,3.758620689655172,10.137931034482758,1811.6206896551723,-31.89536266349584,4.413793103448276,1.8558620689655172
Cr8 Fe3 N8,0.36747265195481216,3.0,1.0198652142779299,36.60846736842105,3.1578947368421053,10.105263157894736,1230.4315789473685,-99.27977839335179,5.578947368421052,2.267894736842105
Cs1 B1,0.2791744951428694,2.0,0.6931471805599453,71.857725983,4.0,7.0,1325.35,29.0,2.0,1.415
Cs1 Fe2 Sb2,0.3486437760241054,3.0,1.054920167986144,97.6232103932,4.800000000000001,9.4,1146.252,25.600000000000005,4.6000000000000005,1.71
Cs1 Mg6 Mn1,0.20460433867588904,3.0,0.7356219397587946,41.70918703325,3.5,2.5,919.8375,17.5625,2.5,1.2750000000000001
Cs1 Mg6 V1,0.22212764179912087,3.0,0.7356219397587946,41.209620245749996,3.5,2.25,1002.8375,24.4375,2.25,1.2850000000000001
Cs1 N1,0.4038503039696859,2.0,0.6931471805599453,73.456225983,4.0,8.0,182.42499999999998,-155.0,3.0,1.915
Cs2 Li2 N4,0.5036873276180274,3.0,1.0397207708399179,41.9648629915,3.0,8.0,220.41249999999997,-146.0,3.0,1.9625
Cs2 Mg12 Cr2,0.2313709265488417,3.0,0.7356219397587946,41.34145149574999,3.5,2.375,1002.4625,24.4375,2.375,1.28875
Cs2 Mg12 Mn2,0.21942078786393865,3.0,0.7356219397587946,41.70918703325,3.5,2.5,919.8375,17.5625,2.5,1.2750000000000001
Cs2 Mn2 Bi2,0.49375783340063745,3.0,1.0986122886681098,132.274632422,5.333333333333333,7.666666666666666,788.4666666666667,20.888888888888886,4.333333333333333,1.4533333333333331
Cs2 Mn2 Sb2,0.5061209637225144,3.0,1.0986122886681098,103.20119875533332,5.0,7.666666666666666,908.16,15.555555555555554,4.333333333333333,1.4633333333333332
Cs4 Mn4 N36,0.3192242361881577,3.0,0.6001660731596457,28.536954205999997,2.5454545454545454,13.0,217.18636363636364,-79.17355371900827,4.818181818181818,2.7
Cs4 Mn4 N4,0.24610460702725476,3.0,1.0986122886681098,67.28349875533333,3.9999999999999996,7.666666666666666,627.9499999999999,-90.22222222222221,4.333333333333333,1.7933333333333332
Cs6 Mn2 H10,0.26672715835094746,3.0,0.9368883075390159,50.96604446644444,3.0,1.6666666666666667,277.1166666666667,-9.728395061728396,1.6666666666666667,1.6577777777777778
Cu1 Ni1,0.24182690200998178,2.0,0.6931471805599453,61.119870000000006,4.0,10.5,1542.885,4.0,4.0,1.9049999999999998
Cu1 Ni3,0.4246671715202779,2.0,0.5623351446188083,59.906655,4.0,10.25,1635.4425,3.0,4.0,1.9075
Cu1 Ni3 N1,0.23123147579288758,3.0,0.9502705392332346,50.726724000000004,3.6,11.2,1320.9840000000002,-44.64,4.2,2.134
Cu1 Rh1,0.2545625647126705,2.0,0.6931471805599453,83.225901,4.5,10.0,1797.385,-2.0,5.0,2.09
Cu3 Ru1 N1,0.34542449143655624,3.0,0.9502705392332346,61.14358,3.8,11.2,1348.692,-46.72,5.0,2.188
Cu4 Ge4 N8,0.22685205024644034,3.0,1.0397207708399179,41.047775,3.0,13.75,673.8675000000001,-84.125,4.5,2.4975
Cu4 N32,0.3668893469514709,2.0,0.34883209584303193,19.511366666666664,2.2222222222222223,14.555555555555555,206.99666666666664,-33.18518518518518,4.888888888888888,2.913333333333333
Cu6 Ru2,0.22845608041488194,2.0,0.5623351446188083,72.92772500000001,4.25,10.25,1670.0774999999999,5.25,5.0,1.975
F8,1.1791474056395588,1.0,-0.0,18.9984031636,2.0,17.0,53.48,0.0,1.0,3.98
Fe1,2.4439478690945373,1.0,-0.0,55.8452,4.0,8.0,1811.0,0.0,6.0,1.83
Fe1 Ag1,1.0553747987870912,2.0,0.6931471805599453,81.85670999999999,4.5,9.5,1522.9650000000001,28.0,5.0,1.88
Fe1 Ag3,0.5456678612048617,2.0,0.5623351446188083,94.86246499999999,4.75,10.25,1378.9475,21.0,4.5,1.905
Fe1 Au1,1.088622221702462,2.0,0.6931471805599453,126.40588475,5.0,9.5,1574.165,8.0,5.5,2.185
Fe1 Au3,0.5313132771355696,2.0,0.5623351446188083,161.686227125,5.5,10.25,1455.7475,6.0,5.25,2.3625
Fe1 B2,0.4013583711499619,2.0,0.6365141682948129,25.82173333333333,2.6666666666666665,11.333333333333332,2169.6666666666665,-23.11111111111111,4.0,1.97
Fe1 B4 Mo2,0.19287749850526134,3.0,0.9556998911125343,41.569599999999994,3.1428571428571423,10.285714285714285,2428.4285714285716,-31.020408163265305,4.285714285714286,2.044285714285714
Fe1 Co1,2.4330435262377907,2.0,0.6931471805599453,57.3891972,4.0,8.5,1789.5,-1.0,5.5,1.855
Fe1 Co1 Pt2,1.1405621345169383,3.0,1.0397207708399179,126.23704860000001,5.0,9.25,1915.45,-10.25,5.75,2.0675
Fe1 Co1 Sn1,0.984332569327466,3.0,1.0986122886681098,77.82969813333334,4.333333333333333,10.333333333333332,1361.36,4.444444444444444,5.0,1.8900000000000001
Fe1 Co2 Ge1,1.506837124301497,3.0,1.0397207708399179,61.5855972,4.0,10.0,1639.6,-15.125,5.0,1.9
Fe1 Co2 N2,0.5934031031402462,3.0,1.054920167986144,40.34511776,3.2,11.200000000000001,1094.66,-76.16000000000001,5.2,2.334
Fe1 Co2 Si1,1.5877949539010487,3.0,1.0397207708399179,50.4491472,3.75,10.0,1758.5,-28.25,5.0,1.8725
Fe1 Co3,2.0375684866456014,2.0,0.5623351446188083,58.1611958,4.0,8.75,1778.75,-0.75,5.25,1.8675
Fe1 Co9,1.5997428209781148,2.0,0.3250829733914482,58.62439496,4.0,8.9,1772.3000000000002,-0.36000000000000004,5.1,1.875
Fe1 Cu1,1.2519052600420695,2.0,0.6931471805599453,59.695750000000004,4.0,9.5,1584.385,13.0,5.0,1.865
Fe1 Cu1 Ni1,1.0505122768862971,3.0,1.0986122886681098,59.361646666666665,4.0,9.666666666666666,1632.2566666666667,6.666666666666666,4.666666666666666,1.8800000000000001
Fe1 Cu1 Pt2,0.8478769190995221,3.0,1.0397207708399179,127.390325,5.0,9.75,1812.8925,-9.25,5.5,2.0725
Fe1 Cu2 Sn1,0.5572475507873076,3.0,1.0397207708399179,75.412125,4.25,11.0,1257.905,12.75,4.5,1.8975
Fe1 Cu3,0.6198296413891244,2.0,0.5623351446188083,61.621025,4.0,10.25,1471.0774999999999,9.75,4.5,1.8824999999999998
Fe1 Cu4,0.4586994375654399,2.0,0.5004024235381879,62.006080000000004,4.0,10.4,1448.4160000000002,8.320000000000002,4.4,1.8860000000000001
Fe1 Ge1 Ru2,0.9172089808592421,3.0,1.0397207708399179,82.655,4.5,9.5,2059.1,-15.625,6.5,2.06
Fe1 H1,2.1917235552164462,2.0,0.6931471805599453,28.4266,2.5,4.5,912.495,-23.0,3.5,2.015
Fe1 H3,0.4275711905153973,2.0,0.5623351446188083,14.7173,1.75,2.75,463.2425,-17.25,2.25,2.1075
Fe1 Mo2,0.5346292734572375,2.0,0.6365141682948129,82.58239999999999,4.666666666666666,6.666666666666666,2534.333333333333,-1.7777777777777777,6.0,2.05
Fe1 N1,1.726650183130843,2.0,0.6931471805599453,34.9261,3.0,11.5,937.075,-87.0,5.5,2.435
Fe1 Ni1,1.6585771423005347,2.0,0.6931471805599453,57.26932,4.0,9.0,1769.5,-2.0,5.0,1.87
Fe1 Ni1 N1,0.9646679330723363,3.0,1.0986122886681098,42.848546666666664,3.333333333333333,11.0,1200.7166666666665,-70.22222222222221,5.0,2.26
Fe1 Ni1 Pt2,0.987144286656595,3.0,1.0397207708399179,126.17711,5.0,9.5,1905.45,-9.5,5.5,2.075
Fe1 Ni1 Pt6,0.5739806537043456,3.0,0.7356219397587946,160.63100500000002,5.5,9.75,1973.4250000000002,-6.875,5.75,2.1774999999999998
Fe1 Ni1 Sn1,0.753999581911012,3.0,1.0986122886681098,77.74978,4.333333333333333,10.666666666666666,1348.0266666666666,2.222222222222222,4.666666666666666,1.9000000000000001
Fe1 Ni2 Ge1,0.5919067752928449,3.0,1.0397207708399179,61.46572,4.0,10.5,1619.6,-16.625,4.5,1.915
Fe1 Ni3,1.218291240970409,2.0,0.5623351446188083,57.98138,4.0,9.5,1748.75,-1.5,4.5,1.89
Fe1 Pb1 W2,0.34454433430138565,3.0,1.0397207708399179,157.6843,5.5,8.5,2450.4025,31.75,5.5,2.105
Fe1 Pd2,1.004729396112856,2.0,0.6365141682948129,89.5624,4.666666666666666,9.333333333333332,1822.3666666666663,-3.5555555555555554,4.666666666666666,2.0766666666666667
Fe1 Pd2 N2,0.24904798344617954,3.0,1.054920167986144,59.34024000000001,3.5999999999999996,11.6,1118.68,-68.80000000000001,4.800000000000001,2.462
Fe1 Pd3,0.8186182276167118,2.0,0.5623351446188083,93.77705,4.75,9.5,1823.7875,-3.0,4.5,2.1075
Fe1 Pt1,1.4805776523669882,2.0,0.6931471805599453,125.46505,5.0,9.0,1926.2,-13.0,6.0,2.0549999999999997