chemical formula,saturation magnetization,compoundradix,stoicentw,Zw,periodw,groupw,meltingTw,miedemaH,valencew,electronegw
Nb2 Al2 Fe8,0.8218438322549891,3.0,0.8675632284814613,57.21145176166666,4.0,8.333333333333332,1821.245,-14.0,5.333333333333333,1.7550000000000001
Nb2 Co21 B6,1.0091097592277956,3.0,0.7441295414112981,51.319649186206895,3.655172413793103,9.551724137931034,1955.9310344827586,-22.458977407847797,4.586206896551724,1.8937931034482758
Nb2 Co4,0.9866174288704213,2.0,0.6365141682948129,70.25758693333333,4.333333333333333,7.666666666666666,2095.333333333333,-22.22222222222222,5.0,1.7866666666666666
Nb2 Cr1 N3,0.18272184540304673,3.0,1.0114042647073518,46.63831733333333,3.333333333333333,10.166666666666666,1311.575,-153.22222222222223,5.166666666666666,2.33
Nb2 Cr2 N4,0.2614064719591019,3.0,1.0397207708399179,43.229133000000004,3.25,10.25,1264.075,-142.25,5.25,2.335
Nb2 Cr2 N6,0.366822740664,3.0,0.9502705392332346,37.384706400000006,3.0,11.2,1023.89,-136.0,5.2,2.476
Nb2 Fe2 Si2,0.24445887924307427,3.0,1.0986122886681098,58.945524,4.0,9.0,2082.6666666666665,-47.55555555555556,5.0,1.7766666666666668
Nb2 Fe4,1.2711724627032486,2.0,0.6365141682948129,68.19892399999999,4.333333333333333,7.0,2124.0,-14.222222222222221,5.666666666666666,1.7533333333333334
Nb2 Fe8 Si2,0.8089508765591098,3.0,0.8675632284814613,57.395362,4.0,8.5,1946.8333333333333,-28.88888888888889,5.5,1.8033333333333335
Nb2 Ni4,0.33426236187951036,2.0,0.6365141682948129,70.09775066666667,4.333333333333333,8.333333333333332,2068.6666666666665,-26.666666666666664,4.333333333333333,1.8066666666666666
Nb24 Fe18 Si30,0.21091087151952467,3.0,1.077556327066801,56.632174,3.9166666666666665,9.5,2072.3333333333335,-51.027777777777786,4.833333333333334,1.7825
Nb24 Fe24 Si24,0.35650056572473066,3.0,1.0986122886681098,58.945524,4.0,9.0,2082.6666666666665,-47.55555555555556,5.0,1.7766666666666668
Nb3 Al1 Fe8,0.7092788594879681,3.0,0.8239592165010823,62.70518788083333,4.166666666666666,7.666666666666666,1972.6225,-14.61111111111111,5.5,1.7541666666666667
Nb3 Al1 V3 Sn1,0.2517740021204314,4.0,1.2554823251787535,72.15448557125,4.375,7.125,2029.69375,-7.0625,4.625,1.6575000000000002
Nb3 Co8 Si1,0.24739479730173114,3.0,0.8239592165010823,64.85580593333333,4.166666666666666,8.416666666666666,2006.7499999999998,-29.777777777777775,4.916666666666666,1.8116666666666665
Nb3 Cr1,0.4302738371046876,2.0,0.5623351446188083,82.678819,4.75,5.25,2607.5,-5.25,5.25,1.6150000000000002
Nb3 Fe1,0.28056112852556353,2.0,0.5623351446188083,83.64107899999999,4.75,5.75,2515.25,-12.0,5.25,1.6575000000000002
Nb3 Fe20 B6,1.2503828108022736,3.0,0.8169151695570781,50.36148675862069,3.689655172413793,8.724137931034484,2019.4482758620688,-24.028537455410223,5.275862068965518,1.8496551724137933
Nb3 Fe3 B3,0.28172421353110505,3.0,1.0986122886681098,53.187190666666666,3.6666666666666665,8.666666666666666,2303.333333333333,-42.666666666666664,4.666666666666666,1.8233333333333333
Nb3 Fe8 Si1,0.7596030521291444,3.0,0.8239592165010823,62.797143,4.166666666666666,7.75,2035.4166666666665,-23.111111111111107,5.583333333333333,1.7783333333333333
Nb4 Al4 Fe4,0.4163694745906923,3.0,1.0986122886681098,58.57770352333333,4.0,8.666666666666666,1831.4899999999998,-20.0,4.666666666666666,1.6800000000000002
Nb4 Co8 Sn4,0.2501350059498294,3.0,1.0397207708399179,82.3708652,4.5,9.25,1697.77,-12.75,4.75,1.83
Nb4 Cr2,0.6197591699187314,2.0,0.6365141682948129,79.26963466666666,4.666666666666666,5.333333333333333,2560.0,-6.222222222222221,5.333333333333333,1.6199999999999999
Nb4 Cr6 Si6,0.22911774481724484,3.0,1.0821955300387671,53.257028000000005,3.875,8.75,2137.625,-44.4375,5.0,1.7349999999999999
Nb4 Cr8 Si10,0.3103081360378491,3.0,1.0361987848192837,48.56567127272728,3.727272727272727,9.454545454545455,2059.5454545454545,-44.82644628099174,4.909090909090909,1.758181818181818
Nb4 Fe2,0.5272599914027631,2.0,0.6365141682948129,80.552648,4.666666666666666,6.0,2437.0,-14.222222222222221,5.333333333333333,1.6766666666666667
Nb4 Fe2 B4,0.31337840725352767,3.0,1.054920167986144,52.655588800000004,3.5999999999999996,8.8,2401.8,-48.00000000000001,4.4,1.8220000000000003
Nb4 Fe2 Co6,0.38256985599867677,3.0,1.0114042647073516,69.7429212,4.333333333333333,7.500000000000002,2102.5,-20.555555555555554,5.166666666666666,1.778333333333333
Nb4 Fe3 Si5,0.20792044862456505,3.0,1.077556327066801,56.632174,3.9166666666666665,9.5,2072.3333333333335,-51.027777777777786,4.833333333333334,1.7825
Nb4 Fe4 Si4,0.1878466593441447,3.0,1.0986122886681098,58.945524,4.0,9.0,2082.6666666666665,-47.55555555555556,5.0,1.7766666666666668
Nb4 Fe8,0.24429091929598945,2.0,0.6365141682948129,68.19892399999999,4.333333333333333,7.0,2124.0,-14.222222222222221,5.666666666666666,1.7533333333333334
Nb4 Ga2 Co6,0.9053428457473369,3.0,1.0114042647073518,72.05590453333333,4.333333333333333,8.333333333333332,1851.1524333333332,-22.11111111111111,4.666666666666666,1.775
Nb4 Ni6 Ge2,0.28025065944962996,3.0,1.0114042647073518,72.420644,4.333333333333333,9.0,1982.5666666666666,-35.94444444444444,4.333333333333333,1.8233333333333333
Nb6 Co16 Ge7,0.26592381284013805,3.0,0.9971804018970939,69.26844628965517,4.206896551724138,9.379310344827585,1836.8206896551724,-30.159334126040427,4.758620689655173,1.8534482758620687
Nb6 Co18,0.48394812675632337,2.0,0.5623351446188083,67.4264888,4.25,8.0,2013.5,-18.75,5.0,1.81
Nb6 Co7,0.5078795845425437,2.0,0.6901856760188042,74.61312252307692,4.461538461538462,7.153846153846154,2221.2307692307695,-24.85207100591716,5.0,1.7507692307692306
Nb6 Fe6 Ge6,0.34597186128676377,3.0,1.0986122886681098,73.794124,4.333333333333333,9.0,1924.1333333333332,-30.22222222222222,5.0,1.8133333333333332
Nb6 Fe7,0.5409267293093081,2.0,0.6901856760188042,72.95035630769232,4.461538461538462,6.615384615384615,2244.3846153846152,-15.905325443786982,5.538461538461538,1.7238461538461538
Nb8 Co16,1.0918190951981863,2.0,0.6365141682948129,70.25758693333333,4.333333333333333,7.666666666666666,2095.333333333333,-22.22222222222222,5.0,1.7866666666666666
Nb8 Fe16,0.3621216709710531,2.0,0.6365141682948129,68.19892399999999,4.333333333333333,7.0,2124.0,-14.222222222222221,5.666666666666666,1.7533333333333334
Ni1,0.7232154600236065,1.0,-0.0,58.69344,4.0,10.0,1728.0,0.0,4.0,1.91
Ni1 Pd1,0.5444711978451441,2.0,0.6931471805599453,82.55722,4.5,10.0,1778.025,0.0,4.0,2.055
Ni1 Pt1,0.5190988673192338,2.0,0.6931471805599453,126.88917000000001,5.0,10.0,1884.7,-5.0,5.0,2.0949999999999998
Ni1 Pt3,0.3249060383017488,2.0,0.5623351446188083,160.987035,5.5,10.0,1963.0500000000002,-3.75,5.5,2.1875
Ni1 Sn1 Rh2,0.1971159983589197,3.0,1.0397207708399179,95.803786,4.75,10.5,1676.77,-8.0,5.0,2.1075
Ni16 Ge16 N32,0.259456830619839,3.0,1.0397207708399179,39.83456,3.0,13.5,766.4250000000001,-79.625,4.5,2.5
Ni2,0.5319358163793856,1.0,-0.0,58.69344,4.0,10.0,1728.0,0.0,4.0,1.91
Ni2 H1,0.3526838186165289,2.0,0.6365141682948129,39.46496,3.0,6.999999999999999,1156.6633333333334,-20.444444444444443,3.0,2.0066666666666664
Ni2 Pd6,0.3355657239133005,2.0,0.5623351446188083,94.48911000000001,4.75,10.0,1803.0375,0.0,4.0,2.1275
Ni2 Pt2,0.5733752768586362,2.0,0.6931471805599453,126.88917000000001,5.0,10.0,1884.7,-5.0,5.0,2.0949999999999998
Ni3 Ag1,0.31295785260289793,2.0,0.5623351446188083,70.987135,4.25,10.25,1604.7325,11.25,4.0,1.915
Ni3 Au1,0.32831203397314307,2.0,0.5623351446188083,93.261722375,4.5,10.25,1630.3325,5.25,4.25,2.0675
Ni3 H1,0.2964043537791083,2.0,0.5623351446188083,44.27208,3.25,7.75,1299.4975,-17.25,3.25,1.9825
Ni3 Hg1,0.19816405122734795,2.0,0.5623351446188083,94.168155,4.5,10.5,1354.58025,6.0,4.0,1.9324999999999999
Ni3 Pt1,0.7066865285826328,2.0,0.5623351446188083,92.791305,4.5,10.0,1806.35,-3.75,4.5,2.0025
Ni4,0.23550008587135518,1.0,-0.0,58.69344,4.0,10.0,1728.0,0.0,4.0,1.91
Ni4 Ge1,0.29616225331640544,2.0,0.5004024235381879,61.480912000000004,4.0,10.8,1624.68,-15.040000000000003,4.0,1.93
Ni4 Ge1 Pt5,0.31307835352050334,3.0,0.9433483923290391,128.282906,5.0,10.4,1833.04,-15.260000000000002,5.0,2.105
Ni4 Ge4 N8,0.5227403842747541,3.0,1.0397207708399179,39.83456,3.0,13.5,766.4250000000001,-79.625,4.5,2.5
Ni4 N1,0.5118375961850994,2.0,0.5004024235381879,49.75615200000001,3.6,11.0,1395.0300000000002,-44.16000000000001,4.2,2.136
Ni4 Ru1,0.3377621075242208,2.0,0.5004024235381879,67.16915200000001,4.2,9.600000000000001,1903.8000000000002,0.0,4.800000000000001,1.968
Ni6 Au2,0.37875252018603284,2.0,0.5623351446188083,93.261722375,4.5,10.25,1630.3325,5.25,4.25,2.0675
Ni6 H2,0.5186062998332794,2.0,0.5623351446188083,44.27208,3.25,7.75,1299.4975,-17.25,3.25,1.9825
Ni6 Hg2,0.2268397073233125,2.0,0.5623351446188083,94.168155,4.5,10.5,1354.58025,6.0,4.0,1.9324999999999999
Ni6 Rh2,0.9009111727544803,2.0,0.5623351446188083,69.7464555,4.25,9.75,1855.25,-0.75,4.5,2.0025
O10,0.29263691817023885,1.0,-0.0,15.999,2.0,16.0,54.36,0.0,2.0,3.44
O2,0.6426463333848689,1.0,-0.0,15.999,2.0,16.0,54.36,0.0,2.0,3.44
O8,0.6393185913519732,1.0,-0.0,15.999,2.0,16.0,54.36,0.0,2.0,3.44
Os1 Au3,0.19963842785182082,2.0,0.5623351446188083,195.283177125,6.0,10.25,1829.4975,13.5,5.75,2.455
Os4 N8,0.5159097770987502,2.0,0.6365141682948129,72.749,3.333333333333333,12.666666666666666,1144.1,-53.33333333333333,6.0,2.76
Pd1,0.29869792973725645,1.0,-0.0,106.421,5.0,10.0,1828.05,0.0,4.0,2.2
Pd1 Pt3,0.26659791642809916,2.0,0.5623351446188083,172.918925,5.75,10.0,1988.0625000000002,1.5,5.5,2.26
Pd2,0.25442657765754334,1.0,-0.0,106.421,5.0,10.0,1828.05,0.0,4.0,2.2
Pd3 N1,0.5245185590791935,2.0,0.5623351446188083,83.31750000000001,4.25,11.25,1386.8249999999998,-46.5,4.25,2.41
Pd3 Rh1,0.519077301612349,2.0,0.5623351446188083,105.5421255,5.0,9.75,1930.2875,1.5,4.5,2.22
Pd4,0.3116347920744517,1.0,-0.0,106.421,5.0,10.0,1828.05,0.0,4.0,2.2
Pt3 Rh1,0.39963124657115895,2.0,0.5623351446188083,172.0400505,5.75,9.75,2090.3,-1.5,6.0,2.28
Rb1 Cd1 N3,0.690097268309356,3.0,0.9502705392332346,47.98064600000001,3.2,11.6,219.224,-117.44,3.6,2.326
Rb1 Mg6 V1,0.19589007167435957,3.0,0.7356219397587946,35.279917499999996,3.375,2.25,1004.18125,23.5,2.25,1.2887499999999998
Rb1 N1,0.4081697258318839,2.0,0.6931471805599453,49.737415000000006,3.5,8.0,187.79999999999998,-154.0,3.0,1.93
Rb1 Sb1,0.21251785400898668,2.0,0.6931471805599453,103.61396500000001,5.0,8.0,608.115,-24.0,3.0,1.4349999999999998
Rb2 Al2 H16 N8,0.24777121875627184,4.0,1.0547209169068121,12.610097755,1.7142857142857142,5.857142857142858,115.03142857142856,-35.244897959183675,2.2857142857142856,2.2992857142857144
Rb2 Li2 Mn2 B8 H32,0.23799176941090458,5.0,0.965642172437147,8.987559752173913,1.5217391304347825,3.3478260869565215,517.6060869565217,-6.192816635160678,1.608695652173913,2.030869565217391
Rb2 Mg12 Cr2,0.2435804030883797,3.0,0.7356219397587946,35.41174875,3.375,2.375,1003.80625,23.5,2.375,1.2925
Rb2 Mg12 Mn2,0.2192805128751492,3.0,0.7356219397587946,35.7794842875,3.375,2.5,921.18125,16.6875,2.5,1.27875
Rb2 Mg12 V2,0.18954514350719023,3.0,0.7356219397587946,35.279917499999996,3.375,2.25,1004.18125,23.5,2.25,1.2887499999999998
Rb2 Mn1 Bi2,0.2215190123074684,3.0,1.054920167986144,128.76690126000003,5.2,7.800000000000001,646.6600000000001,6.400000000000001,3.8000000000000003,1.4460000000000002
Rb2 Mn1 Sb2,0.23575706634432975,3.0,1.0549201679861442,93.87878086,4.8,7.800000000000001,790.292,3.200000000000002,3.8000000000000003,1.458
Rb2 Mn2 Bi2,0.5206734999081525,3.0,1.0986122886681098,116.46209176666666,5.0,7.666666666666666,792.05,20.44444444444444,4.333333333333333,1.4633333333333332
Rb2 Mn2 Sb2,0.5472403957147793,3.0,1.0986122886681098,87.3886581,4.666666666666666,7.666666666666666,911.7433333333333,15.11111111111111,4.333333333333333,1.4733333333333332
Rb2 N2,0.4025700498234961,2.0,0.6931471805599453,49.737415000000006,3.5,8.0,187.79999999999998,-154.0,3.0,1.93
Rb3 Cr1,0.2529523549830988,2.0,0.5623351446188083,77.09991250000002,4.75,2.25,779.3375,70.5,2.25,1.03
Rb3 Mn1,0.20521890672287404,2.0,0.5623351446188083,77.83538357500001,4.75,2.5,614.0875,51.75,2.5,1.0025
Rb3 Mo1,0.2507543351432625,2.0,0.5623351446188083,88.0886225,5.0,2.25,958.3375,93.75,2.25,1.155
Rb3 Nb1,0.29694425338191477,2.0,0.5623351446188083,87.3274655,5.0,2.0,921.8375,97.5,2.0,1.015
Rb3 Re1,0.2245160233546251,2.0,0.5623351446188083,110.6526475,5.25,2.5,1099.0875,73.5,2.5,1.0899999999999999
Rb3 Ta1,0.29267516537077026,2.0,0.5623351446188083,109.337843,5.25,2.0,1056.8375,93.75,2.0,0.99
Rb3 Tc1,0.20485871120508295,2.0,0.5623351446188083,88.60087250000001,5.0,2.5,841.8375,50.25,2.5,1.0899999999999999
Rb3 V1,0.2463593324411465,2.0,0.5623351446188083,76.83625,4.75,2.0,780.0875,75.0,2.0,1.0225
Rb3 W1,0.27326681395824476,2.0,0.5623351446188083,110.06112250000001,5.25,2.25,1158.0875,96.75,2.25,1.205
Rb3 Zr1,0.18788595453531187,2.0,0.5623351446188083,86.90692250000001,5.0,1.75,766.3375,71.25,1.75,0.9475
Rb4 Ba4 N12,0.4318324698454676,3.0,0.9502705392332346,52.963306,3.4000000000000004,9.6,300.38,-174.24,3.6,2.166
Rb4 Mn4 N4,0.26797895458383586,3.0,1.0986122886681098,51.4709581,3.6666666666666665,7.666666666666666,631.5333333333333,-90.66666666666666,4.333333333333333,1.8033333333333332
Rb6 Cr2,0.2678432417485548,2.0,0.5623351446188083,77.09991250000002,4.75,2.25,779.3375,70.5,2.25,1.03
Rb6 Mn2 H10,0.30699120261385116,3.0,0.9368883075390159,35.153503811111115,2.666666666666666,1.6666666666666667,280.7,-10.024691358024691,1.6666666666666667,1.6677777777777778
Rb6 Nb2,0.2684739331766309,2.0,0.5623351446188083,87.3274655,5.0,2.0,921.8375,97.5,2.0,1.015
Rb8 Zn4 N16,0.5345403315961995,3.0,0.9556998911125343,41.763665714285715,3.142857142857143,10.571428571428571,224.31142857142856,-127.0204081632653,3.4285714285714284,2.207142857142857
Re1 Ag3,0.3511668815685693,2.0,0.5623351446188083,127.45293999999998,5.25,10.0,1790.9475,28.5,4.75,1.9224999999999999
Rh1,0.291840584086799,1.0,-0.0,102.905502,5.0,9.0,2237.0,0.0,6.0,2.28
Rh3 Pb1,0.19279630169417306,2.0,0.5623351446188083,128.9816265,5.25,10.25,1827.9025,4.5,5.5,2.1775
Ru1 Au3,0.26420774376132655,2.0,0.5623351446188083,172.992927125,5.75,10.25,1654.7475,11.25,5.75,2.455
Ru1 N1,0.5920880559380293,2.0,0.6931471805599453,57.539500000000004,3.5,11.5,1335.075,-61.0,6.5,2.62
Ru2 Au6,0.321598474852186,2.0,0.5623351446188083,172.992927125,5.75,10.25,1654.7475,11.25,5.75,2.455
Si16 Ni16 N32,0.2889976355295887,3.0,1.0397207708399179,28.69811,2.75,13.5,885.325,-85.0,4.5,2.4725
Si2 Ni6 Mo4,0.2357186256865334,3.0,1.0114042647073518,66.01122,4.166666666666666,9.333333333333332,2110.5,-25.77777777777778,4.666666666666666,1.9916666666666667
Si4 N6,0.1816380062037301,2.0,0.6730116670092564,19.6382,2.4000000000000004,14.6,712.69,-77.75999999999999,4.6,2.584
Si4 Ni4 N8,0.5750175700771202,3.0,1.0397207708399179,28.69811,2.75,13.5,885.325,-85.0,4.5,2.4725
Sn1 Os2 Ru1,0.34169922589869817,3.0,1.0397207708399179,150.062175,5.5,9.5,2431.02,5.5,7.0,2.14
Sn3 Mo1,0.2684782239655359,2.0,0.5623351446188083,113.02077500000001,5.0,12.0,1102.81,15.0,4.5,2.01
Sr1 Cr1 Pd2,0.6529230254722747,3.0,1.0397207708399179,88.11479,4.75,7.0,1721.525,-26.25,4.0,1.7525000000000002
Sr1 Cr1 Rh2,0.5428808305377721,3.0,1.0397207708399179,86.35704100000001,4.75,6.5,1926.0,-5.75,5.0,1.7925
Sr1 Fe2 N2,0.7932037246307095,3.0,1.054920167986144,45.46508,3.4000000000000004,9.6,959.6600000000001,-110.72000000000003,4.800000000000001,2.1380000000000003
Sr1 Mg6 Fe1,0.18806080196892214,3.0,0.7356219397587946,36.16202499999999,3.375,2.75,1049.875,7.375,2.5,1.33
Sr1 Mg6 V1,0.19768595306286893,3.0,0.7356219397587946,35.549063749999995,3.375,2.375,1096.375,10.5,2.375,1.3050000000000002
Sr1 Mn1 Re2,0.43589363033782375,3.0,1.0397207708399179,128.743311075,5.25,5.75,2371.75,25.75,5.75,1.575
Sr1 Mn2 Ge2,0.5378309537832943,3.0,1.054920167986144,68.55173771999999,4.2,8.8,1302.16,-30.560000000000002,4.8,1.6139999999999999
Sr1 Mn2 N2,0.49785544788452724,3.0,1.054920167986144,45.102217720000006,3.4000000000000004,9.200000000000001,842.86,-133.44000000000003,5.2,2.0260000000000002
Sr1 Mn2 Sb2,0.7399198250970113,3.0,1.054920167986144,88.20345772,4.6,9.200000000000001,1179.112,-19.520000000000003,5.2,1.6300000000000001
Sr1 N1,0.29793802004405784,2.0,0.6931471805599453,50.814,3.5,8.5,556.575,-206.0,3.5,1.995
Sr10 Fe5 N10,0.25147263357724825,3.0,1.054920167986144,51.820240000000005,3.5999999999999996,8.4,807.46,-148.80000000000004,4.0,1.9620000000000002
Sr10 Mn4 N12,0.20842774368578965,3.0,1.0123308391031733,48.617160661538456,3.4615384615384617,8.76923076923077,666.6846153846154,-173.68047337278108,4.153846153846154,2.006923076923077
Sr12 Cr12 Ge24,0.3649070643603619,3.0,1.0397207708399179,71.21968999999999,4.25,9.0,1413.2,-27.25,4.0,1.6575
Sr12 Cr24 N48,0.2394434841483513,3.0,0.9556998911125343,35.37733142857142,3.0,10.571428571428571,808.9428571428571,-129.46938775510205,4.857142857142857,2.347142857142857
Sr12 Fe8 N16,0.33483681656259995,3.0,1.0608569471580214,47.84237777777777,3.444444444444444,9.11111111111111,780.511111111111,-146.37037037037035,4.222222222222222,2.0744444444444445
Sr12 Mn8 N16,0.32615862281472174,3.0,1.0608569471580214,47.64078762222222,3.444444444444444,8.88888888888889,715.6222222222223,-161.0864197530864,4.444444444444445,2.0122222222222224
Sr2 Co1 N2,0.3753448522747016,3.0,1.054920167986144,52.43783888,3.5999999999999996,8.6,798.86,-152.64000000000004,3.8000000000000003,1.9720000000000002
Sr2 Cr14 N20,0.28467446700617866,3.0,0.8544149816001841,32.87022888888889,2.9444444444444446,10.777777777777779,941.1944444444446,-113.8395061728395,5.222222222222222,2.3872222222222224
Sr2 Fe10 N8,0.40033177339146403,3.0,0.9433483923290392,42.2875,3.3,10.200000000000001,1035.76,-95.76000000000002,5.2,2.226
Sr2 Li6 Mn2 N6,0.2447312938764983,4.0,1.2554823251787535,25.6750055375,2.625,7.125,514.925,-137.25,3.375,1.8199999999999998
Sr2 Mg12 Cr2,0.25783869730023923,3.0,0.7356219397587946,35.68089499999999,3.375,2.5,1096.0,10.4375,2.5,1.30875
Sr2 Mg12 Mn2,0.2344284661787546,3.0,0.7356219397587946,36.048630537499996,3.375,2.625,1013.375,3.9375,2.625,1.2950000000000002
Sr2 Mg12 V2,0.20316423265628736,3.0,0.7356219397587946,35.549063749999995,3.375,2.375,1096.375,10.5,2.375,1.3050000000000002
Sr2 Mn2 Ge2,0.6094754174569372,3.0,1.0986122886681098,71.72994809999999,4.333333333333333,7.666666666666666,1260.1333333333332,-28.444444444444443,4.333333333333333,1.5033333333333332
Sr2 Mn2 Sb4,0.41490996818708736,3.0,1.0397207708399179,96.51981107499999,4.75,9.75,1094.1399999999999,-31.75,4.75,1.65
Sr2 Mn2 Sn2,0.5644815379208095,3.0,1.0986122886681098,87.08991476666667,4.666666666666666,7.666666666666666,1024.6933333333334,-11.555555555555554,4.333333333333333,1.4866666666666666
Sr2 Mn4 N4,0.5163579105975308,3.0,1.054920167986144,45.102217720000006,3.4000000000000004,9.200000000000001,842.86,-133.44000000000003,5.2,2.0260000000000002
Sr2 N4,0.5624048683458962,2.0,0.6365141682948129,38.544999999999995,3.0,10.666666666666666,392.1,-183.11111111111111,4.0,2.3433333333333333
Sr2 Ni1 N2,0.2521007840723433,3.0,1.054920167986144,52.389888000000006,3.5999999999999996,8.8,790.86,-154.24000000000004,3.6,1.9780000000000002
Sr2 Pd1 N2,0.20765198797794016,3.0,1.054920167986144,61.9354,3.8,8.8,810.87,-171.20000000000005,3.6,2.036
Sr2 V1 W1,0.6686296909905717,3.0,1.0397207708399179,102.50612749999999,5.0,3.75,1994.5,61.75,3.75,1.4725
Sr20 Co8 N16,0.19663135294796652,3.0,1.0361987848192837,55.63630807272727,3.7272727272727275,8.0,821.6909090909091,-152.72727272727272,3.6363636363636362,1.8790909090909091
Sr3 Cr1,0.31427888130562953,2.0,0.5623351446188083,78.71479,4.75,3.0,1332.5,35.25,3.0,1.1275
Sr3 Mn12 N12,0.26829610993908515,3.0,0.9649629230074277,40.377908577777774,3.222222222222222,10.0,819.8444444444444,-129.3827160493827,5.555555555555555,2.1455555555555557
Sr3 Mo1,0.24041653188703566,2.0,0.5623351446188083,89.70349999999999,5.0,3.0,1511.5,51.75,3.0,1.2525
Sr3 Nb1,0.22483242941259415,2.0,0.5623351446188083,88.942343,5.0,2.75,1475.0,57.0,2.75,1.1125
Sr3 Ta1,0.2268915781107579,2.0,0.5623351446188083,110.9527205,5.25,2.75,1610.0,54.75,2.75,1.0875
Sr3 Ti1,0.2354316359128408,2.0,0.5623351446188083,77.682525,4.75,2.5,1272.75,39.75,2.5,1.0975