chemical formula,saturation magnetization,compoundradix,stoicentw,Zw,periodw,groupw,meltingTw,miedemaH,valencew,electronegw
Ag6 Ru2,0.28013635510807083,2.0,0.5623351446188083,106.16916499999999,5.0,10.25,1577.9475,17.25,5.0,1.9975
Al1 Co1 Ni6,0.6124571651920483,3.0,0.7356219397587946,54.75942162125,3.875,10.25,1633.6837500000001,-9.4375,4.0,1.86875
Al1 Co2 Ni1,0.6702032774535029,3.0,1.0397207708399179,50.885341842500004,3.75,10.25,1549.3675,-15.0,4.25,1.82
Al1 Co2 Si1,0.5642105943783831,3.0,1.0397207708399179,43.233231842500004,3.5,11.25,1539.1175,-33.25,4.25,1.8175
Al1 Co3,0.9891863509222605,2.0,0.5623351446188083,50.9452804425,3.75,10.0,1559.3675,-14.25,4.5,1.8125
Al1 Co4,1.2095969556570019,2.0,0.5004024235381879,52.542863234,3.8000000000000003,9.8,1601.094,-12.160000000000002,4.6000000000000005,1.826
Al1 Cr1 Co2,0.7513365160954357,3.0,1.0397207708399179,49.2110218425,3.75,9.25,1662.3675,-14.0,4.75,1.7575
Al1 Cr1 Cu2,0.6579529059710649,3.0,1.0397207708399179,51.5175746425,3.75,10.25,1457.2525,3.0,4.25,1.7675
Al1 Cr1 Fe2,0.2658941841607619,3.0,1.0397207708399179,47.6670246425,3.75,8.75,1683.8675,-8.5,5.25,1.7325000000000002
Al1 Cr1 Ni2,0.7722534516888835,3.0,1.0397207708399179,49.091144642500005,3.75,9.75,1642.3675,-17.0,4.25,1.7725
Al1 Cr1 Ru2,0.24947528276292608,3.0,1.0397207708399179,70.28042464250001,4.25,8.75,2081.8675000000003,-19.0,6.25,1.9175000000000002
Al1 Cr2 W1,0.215116318150595,3.0,1.0397207708399179,78.7037146425,4.25,7.75,2247.1175000000003,-5.0,5.25,1.8224999999999998
Al1 Cu1 Ni6,0.2742133007136892,3.0,0.7356219397587946,55.336059821250004,3.875,10.5,1582.405,-6.8125,3.875,1.8712499999999999
Al1 Fe1,0.6602980916076209,2.0,0.6931471805599453,41.413369285,3.5,10.5,1372.2350000000001,-11.0,4.5,1.7200000000000002
Al1 Fe1 Co2,1.2881966204438948,3.0,1.0397207708399179,50.1732818425,3.75,9.75,1570.1175,-12.75,4.75,1.8
Al1 Fe1 Rh2,0.9924619095477629,3.0,1.0397207708399179,72.1594356425,4.25,9.75,1804.6175,-21.25,5.25,2.0
Al1 Fe2,1.3808960135938855,2.0,0.6365141682948129,46.22397952333333,3.6666666666666665,9.666666666666666,1518.4899999999998,-9.777777777777777,5.0,1.7566666666666666
Al1 Fe2 B2,0.7713459215161222,3.0,1.054920167986144,32.058387714,3.0,11.000000000000002,1850.694,-20.160000000000004,4.2,1.87
Al1 Fe2 Mo1,0.20271255492717974,3.0,1.0397207708399179,58.65573464249999,4.0,8.75,1862.8675,-7.75,5.25,1.8575000000000002
Al1 Fe2 Ni1,1.048070099876642,3.0,1.0397207708399179,49.341344642500005,3.75,9.75,1570.8675,-12.0,4.75,1.795
Al1 Fe2 W1,0.22572983565201915,3.0,1.0397207708399179,80.6282346425,4.25,8.75,2062.6175000000003,-6.0,5.25,1.9075000000000002
Al1 Fe3,1.7425361595264373,2.0,0.5623351446188083,48.6292846425,3.75,9.25,1591.6175,-8.25,5.25,1.7750000000000001
Al1 Fe3 B1,0.8452659632125407,3.0,0.9502705392332346,41.065427713999995,3.4,10.0,1743.0939999999998,-17.759999999999998,4.8,1.8280000000000003
Al1 Fe3 H1,1.6850409097684924,3.0,0.9502705392332346,39.105027713999995,3.2,7.6000000000000005,1276.0919999999999,-17.599999999999998,4.4,1.8600000000000003
Al1 Fe3 N1,0.46465868921258713,3.0,0.9502705392332346,41.704827714,3.4,10.4,1285.924,-61.76,5.2,2.028
Al1 Fe4,1.7099711251812117,2.0,0.5004024235381879,50.072467714,3.8000000000000003,9.0,1635.4940000000001,-7.040000000000001,5.4,1.7860000000000003
Al1 Ga1 Ni6,0.24670193115603856,3.0,0.7356219397587946,56.10815982125,3.875,10.75,1450.548075,-13.8125,3.75,1.8599999999999999
Al1 Ni12 Pt3,0.42320613965952236,3.0,0.7029189307735104,82.284844910625,4.3125,10.1875,1737.1043750000001,-9.0,4.3125,1.9606249999999998
Al1 Ni3,0.24456627354751712,2.0,0.5623351446188083,50.7654646425,3.75,10.75,1529.3675,-16.5,3.75,1.835
Al1 Ni6 Pd1,0.23625617128735457,3.0,0.7356219397587946,60.695397321250006,4.0,10.375,1641.19,-11.125,3.875,1.90875
Al1 V1 Co2,0.49831471531507004,3.0,1.0397207708399179,48.9473593425,3.75,9.0,1663.1175,-20.5,4.5,1.75
Al1 V1 Cr2,0.206325856723304,3.0,1.0397207708399179,45.4788421425,3.75,7.5,1869.1175,-10.0,5.0,1.64
Al1 V1 Fe1 Co1,0.24373497486040313,4.0,1.3862943611198906,48.1753607425,3.75,8.75,1673.8675,-17.0,4.75,1.7375
Al1 V1 Fe2,0.8515770735347631,3.0,1.0397207708399179,47.4033621425,3.75,8.5,1684.6175,-13.0,5.0,1.725
Al1 V12 Ge3,0.2217546592222761,3.0,0.7029189307735104,53.510753660625,3.9375,7.1875,1922.729375,-21.3984375,4.6875,1.7
Al1 V12 Si3,0.24226852846876798,3.0,0.7029189307735104,45.158416160625,3.75,7.1875,2011.904375,-30.890625,4.6875,1.6793749999999998
Al1 V12 Sn3,0.18289756508418695,3.0,0.7029189307735104,62.150734910625005,4.125,7.1875,1790.294375,-3.375,4.6875,1.6906249999999998
Al1 V2 Fe1,0.3519631445622913,3.0,1.0397207708399179,46.177439642500005,3.75,7.75,1777.6175,-14.25,4.75,1.675
Al1 V2 W1,0.20170744456033657,3.0,1.0397207708399179,78.1763896425,4.25,7.25,2248.6175000000003,-9.0,4.75,1.8075
Al1 V6 Ga1,0.3566622018335202,3.0,0.7356219397587946,50.29421232125,3.875,7.0,1791.798075,-8.9375,4.5,1.65
Al1 V6 Ge1,0.29986379446730665,3.0,0.7356219397587946,50.65767482125,3.875,7.125,1905.3587499999999,-18.71875,4.625,1.6749999999999998
Al1 V6 Sn1,0.2523834796774558,3.0,0.7356219397587946,56.41766232125,4.0,7.125,1817.06875,-6.125,4.625,1.66875
Al11 Cr4,0.26046522241813413,2.0,0.5799151714181009,33.65210428466667,3.2666666666666666,11.133333333333333,1265.8780000000002,-7.822222222222221,3.8,1.6233333333333333
Al12 Fe7,0.5869371900626875,2.0,0.6581099875431143,37.6155190968421,3.3684210526315788,11.157894736842104,1256.7705263157895,-10.238227146814403,4.105263157894736,1.6910526315789474
Al16 Cr10,0.20822385651032654,2.0,0.666278442414676,36.6025468123077,3.384615384615385,10.307692307692308,1412.9046153846155,-9.467455621301776,4.153846153846154,1.6292307692307693
Al16 Cr16 N32,0.6389825580056063,3.0,1.0397207708399179,26.7479246425,2.75,12.25,809.9425000000001,-102.0,4.75,2.3375
Al16 Fe10,0.5686920582600055,2.0,0.666278442414676,38.082946812307696,3.384615384615385,11.076923076923077,1270.9815384615385,-10.414201183431953,4.153846153846154,1.6946153846153849
Al16 Fe16 N32,0.43356316371080955,3.0,1.0397207708399179,27.7101846425,2.75,12.75,717.6925000000001,-92.25,4.75,2.38
Al2 Co1 Ni1,0.19946758003062373,3.0,1.0397207708399179,42.897427885,3.5,11.25,1340.7350000000001,-20.5,3.75,1.7525
Al2 Co6,0.9460908273209878,2.0,0.5623351446188083,50.9452804425,3.75,10.0,1559.3675,-14.25,4.5,1.8125
Al2 Cr1 Fe1 Co4,1.008453763006756,4.0,1.2130075659799042,49.692151842499996,3.75,9.5,1616.2425,-13.4375,4.75,1.77875
Al2 Cr2 N4,0.7733187011600614,3.0,1.0397207708399179,26.7479246425,2.75,12.25,809.9425000000001,-102.0,4.75,2.3375
Al2 Cr2 Ni2,0.2741628202546603,3.0,1.0986122886681098,45.89037952333333,3.666666666666666,9.666666666666666,1613.8233333333333,-17.333333333333332,4.333333333333333,1.7266666666666666
Al2 Fe2 N4,0.3264243368343459,3.0,1.0397207708399179,27.7101846425,2.75,12.75,717.6925000000001,-92.25,4.75,2.38
Al2 Fe4,1.0768585933020862,2.0,0.6365141682948129,46.22397952333333,3.6666666666666665,9.666666666666666,1518.4899999999998,-9.777777777777777,5.0,1.7566666666666666
Al2 Ni6,0.24594726403818065,2.0,0.5623351446188083,50.7654646425,3.75,10.75,1529.3675,-16.5,3.75,1.835
Al2 Ni9 Pd1,0.19730600497561987,3.0,0.7214636866925115,57.38541976166667,3.9166666666666665,10.5,1603.9158333333332,-13.555555555555555,3.833333333333333,1.8841666666666665
Al2 V18 Au4,0.23398243192438012,3.0,0.7214636866925116,73.28235563083332,4.25,6.666666666666666,1937.9275,-14.722222222222221,4.833333333333333,1.7799999999999998
Al2 V6,0.40796110198348207,2.0,0.5623351446188083,44.9515171425,3.75,7.0,1870.6175,-12.0,4.5,1.625
Al3 Co20 B6,0.7187549572366455,3.0,0.8169151695570781,45.67132771413793,3.4827586206896552,10.241379310344827,1801.8762068965518,-19.120095124851368,4.379310344827586,1.8851724137931034
Al3 Cr1,0.4201758120082001,2.0,0.5623351446188083,33.235193927500006,3.25,11.25,1245.1025,-7.5,3.75,1.6225
Al3 Zn1 Ni12,0.2192466736450168,3.0,0.7029189307735104,53.165493481875004,3.8125,10.6875,1514.318125,-14.015625,3.6875,1.8375
Al4 Co2 N6,0.36585609927429985,3.0,1.0114042647073518,25.819545256666665,2.6666666666666665,13.333333333333332,637.3983333333333,-90.55555555555556,4.333333333333333,2.37
Al4 Cr2 N6,0.5293018441473829,3.0,1.0114042647073518,24.663372856666665,2.6666666666666665,12.833333333333332,706.065,-99.22222222222221,4.5,2.333333333333333
Al4 Cr4 N8,0.7903913140020208,3.0,1.0397207708399179,26.7479246425,2.75,12.25,809.9425000000001,-102.0,4.75,2.3375
Al4 Fe2 N6,0.8757924152897893,3.0,1.0114042647073518,25.30487952333333,2.6666666666666665,13.166666666666666,644.565,-92.77777777777777,4.5,2.361666666666667
Al4 Fe5 Rh1,0.566986500203871,3.0,0.9433483923290393,49.005765628000006,3.7,10.100000000000001,1502.5880000000002,-14.920000000000002,4.800000000000001,1.7870000000000001
Al4 Ni15,0.2631320737029159,2.0,0.5146531654289292,52.01725022526316,3.7894736842105265,10.631578947368421,1560.7305263157896,-14.626038781163434,3.7894736842105265,1.8468421052631578
Al4 Ni2 N6,0.18164976747311726,3.0,1.0114042647073518,25.77958619,2.6666666666666665,13.5,630.7316666666667,-89.22222222222221,4.166666666666666,2.375
Al4 V4 N8,0.5173000203240846,3.0,1.0397207708399179,26.4842621425,2.75,12.0,810.6925000000001,-121.5,4.5,2.33
Ba1 Fe2 N2,0.4966655064655249,3.0,1.054920167986144,55.406420000000004,3.6000000000000005,9.6,949.6600000000001,-111.68000000000004,4.800000000000001,2.1260000000000003
Ba1 Mn2 Ge2,0.6011690484558269,3.0,1.054920167986144,78.49307772,4.4,8.8,1292.16,-31.200000000000003,4.8,1.602
Ba1 Mn2 N2,0.4928526251812181,3.0,1.054920167986144,55.04355772,3.6000000000000005,9.200000000000001,832.86,-134.72000000000003,5.2,2.0140000000000002
Ba1 Mn2 Sb2,0.6648646303609812,3.0,1.054920167986144,98.14479772,4.800000000000001,9.200000000000001,1169.112,-20.800000000000004,5.2,1.618
Ba1 Mn2 Sn2,0.6773998723860063,3.0,1.054920167986144,96.92503772,4.800000000000001,8.8,1009.6320000000001,-11.520000000000003,4.8,1.582
Ba1 Mn28,0.19860023291298945,2.0,0.14999492361041503,57.77906691034483,4.06896551724138,6.827586206896552,1501.1034482758623,3.8620689655172415,6.827586206896552,1.527241379310345
Ba1 N1,0.24838868621488078,2.0,0.6931471805599453,75.66735,4.0,8.5,531.575,-212.0,3.5,1.965
Ba12 Fe8 N16,0.29798977382482006,3.0,1.0608569471580214,64.41127777777777,3.7777777777777777,9.11111111111111,763.8444444444444,-149.037037037037,4.222222222222222,2.0544444444444445
Ba2 Cr1 N2,0.20098960413059866,3.0,1.054920167986144,70.93311200000001,4.0,8.0,861.26,-153.92000000000004,4.0,1.9040000000000001
Ba2 Fe24,1.511070096288619,2.0,0.2711893730418441,62.113084615384615,4.153846153846154,7.538461538461539,1748.6153846153848,10.50887573964497,5.6923076923076925,1.7576923076923079
Ba2 Mg12 Cr2,0.24044586612678528,3.0,0.7356219397587946,41.8942325,3.5,2.5,1089.75,10.625,2.5,1.30125
Ba2 Mg12 Mn2,0.22382700718331658,3.0,0.7356219397587946,42.2619680375,3.5,2.625,1007.125,4.0625,2.625,1.2875
Ba2 Mg12 V2,0.19736937306817212,3.0,0.7356219397587946,41.762401249999996,3.5,2.375,1090.125,10.6875,2.375,1.2974999999999999
Ba2 Mn2 Bi4,0.3713460889758166,3.0,1.0397207708399179,152.556636575,5.5,9.75,902.1,-25.25,4.75,1.62
Ba2 Mn2 Ge2,0.5821692188851298,3.0,1.0986122886681098,88.2988481,4.666666666666666,7.666666666666666,1243.4666666666667,-29.333333333333336,4.333333333333333,1.4833333333333332
Ba2 Mn2 Sb4,0.38975810482349293,3.0,1.0397207708399179,108.946486075,5.0,9.75,1081.6399999999999,-34.25,4.75,1.6349999999999998
Ba2 Mn4 N4,0.49296816741619215,3.0,1.054920167986144,55.04355772,3.6000000000000005,9.200000000000001,832.86,-134.72000000000003,5.2,2.0140000000000002
Ba2 Ni1 N2,0.21359176535439375,3.0,1.054920167986144,72.272568,4.0,8.8,770.86,-157.76000000000005,3.6,1.9540000000000002
Ba2 Pd1 N2,0.19833763448765582,3.0,1.054920167986144,81.81808000000001,4.2,8.8,790.87,-175.36000000000004,3.6,2.012
Ba3 Mn1,0.25610507395581883,2.0,0.5623351446188083,116.730286075,5.5,3.25,1129.75,21.75,3.25,1.055
Ba3 Mo1,0.18888782560010148,2.0,0.5623351446188083,126.98352499999999,5.75,3.0,1474.0,54.75,3.0,1.2075
Ba3 Nb1,0.2299096537405588,2.0,0.5623351446188083,126.22236799999999,5.75,2.75,1437.5,60.75,2.75,1.0675000000000001
Ba4 Ca16 Co8 N16,0.2194185514513392,4.0,1.2636544318820964,42.866880800000004,3.454545454545455,8.0,840.7818181818182,-152.79338842975207,3.6363636363636367,1.8918181818181818
Ba4 N8,0.6158685481821105,2.0,0.6365141682948129,55.113899999999994,3.333333333333333,10.666666666666666,375.4333333333333,-188.44444444444443,4.0,2.3233333333333333
Be1 Co1,0.2610869984963478,2.0,0.6931471805599453,33.972688775,3.0,5.5,1664.0,-4.0,3.5,1.725
Be1 Cr1 Fe2,0.23086796026873202,3.0,1.0397207708399179,43.174685787499996,3.5,6.0,1840.5,-4.25,5.0,1.7225000000000001
Be1 Fe1 Co2,0.18366815897927688,3.0,1.0397207708399179,45.680942987499996,3.5,7.0,1726.75,-3.5,4.5,1.79
Be1 Fe1 Rh2,1.01070711407173,3.0,1.0397207708399179,67.6670967875,4.0,7.0,1961.25,-6.5,5.0,1.99
Be1 Fe2 Si1,0.3666230917176669,3.0,1.0397207708399179,37.1968957875,3.25,8.0,1717.25,-23.25,4.5,1.7825
Be1 Fe3,2.020599478210339,2.0,0.5623351446188083,44.1369457875,3.5,6.5,1748.25,-3.0,5.0,1.7650000000000001
Be1 Ni3,0.3126197711151434,2.0,0.5623351446188083,46.2731257875,3.5,8.0,1686.0,-3.0,3.5,1.825
Be1 V1 Co2,0.2847351572306376,3.0,1.0397207708399179,44.4550204875,3.5,6.25,1819.75,-13.0,4.25,1.74
Be1 V1 Fe2,0.27765633389500616,3.0,1.0397207708399179,42.9110232875,3.5,5.75,1841.25,-9.5,4.75,1.715
Be12 Cr1,0.20713095197349687,2.0,0.2711893730418441,12.31864290769231,2.153846153846154,2.307692307692308,1607.6923076923076,-1.9881656804733727,2.307692307692308,1.576923076923077
Be2 Co1,0.32263027696073365,2.0,0.6365141682948129,25.65252023333333,2.6666666666666665,4.333333333333333,1629.3333333333333,-3.5555555555555554,3.0,1.6733333333333333
Be3 Co1,0.34913132177900663,2.0,0.5623351446188083,21.4924359625,2.5,3.75,1612.0,-3.0,2.75,1.6475
Be3 Fe1,0.593726069322417,2.0,0.5623351446188083,20.7204373625,2.5,3.5,1622.75,-3.0,3.0,1.635
Be4 Al1 Cr1,0.5956897089263693,3.0,0.8675632284814613,19.171071861666665,2.5,4.500000000000001,1558.9116666666666,-4.222222222222221,2.833333333333333,1.5916666666666666
Be4 Al1 Fe1,0.21081141933505268,3.0,0.8675632284814613,19.812578528333333,2.5,4.833333333333334,1497.4116666666666,-3.0,2.833333333333333,1.6199999999999999
Be5 Fe1,0.41756975117272527,2.0,0.45056120886630463,16.817685958333332,2.3333333333333335,3.0,1601.8333333333333,-2.2222222222222223,2.6666666666666665,1.6133333333333333
Be8 Fe4,0.9468296132289574,2.0,0.6365141682948129,24.623188766666665,2.6666666666666665,4.0,1643.6666666666665,-3.5555555555555554,3.333333333333333,1.6566666666666667
Br1,0.22310630352778654,1.0,-0.0,79.904,4.0,17.0,265.8,0.0,7.0,2.96
Ca1 Al8 Fe4,0.3575648376540178,3.0,0.8587409130062867,36.870116043076926,3.384615384615385,10.615384615384617,1217.4430769230771,-9.75147928994083,3.8461538461538463,1.6307692307692307
Ca1 Cr2 N2,0.30938602699552264,3.0,1.054920167986144,34.416944,3.2,8.8,1120.26,-120.64000000000001,4.800000000000001,2.08
Ca1 Cu2 N2,0.26013836634645077,3.0,1.054920167986144,39.037000000000006,3.2,10.8,791.368,-122.24000000000001,4.0,2.176
Ca1 Fe2 N2,0.4953269243712384,3.0,1.054920167986144,35.95656,3.2,9.6,972.6600000000001,-112.00000000000003,4.800000000000001,2.148
Ca1 Fe2 Si2,0.19623132539509788,3.0,1.054920167986144,41.58776,3.6,9.200000000000001,1622.2000000000003,-30.720000000000013,4.4,1.692
Ca1 Mg1 Ni4,0.18713490302885016,3.0,0.8675632284814613,49.85952666666667,3.833333333333333,7.333333333333333,1491.6666666666665,-5.555555555555555,3.333333333333333,1.6583333333333332
Ca1 Mn1 Fe1 Ge2,0.503325139723488,4.0,1.3321790402101223,59.22464886,4.0,9.0,1373.5600000000002,-27.040000000000003,4.6000000000000005,1.6800000000000002
Ca1 Mn10 N8,1.033227137020804,3.0,0.8569977547780645,36.921833842105265,3.1578947368421053,10.105263157894736,884.7473684210526,-121.196675900277,5.894736842105263,2.148421052631579
Ca1 Mn2 Bi2,0.7459277566521368,3.0,1.054920167986144,113.58305812,4.800000000000001,9.200000000000001,1048.48,-9.92,5.2,1.6280000000000001
Ca1 Mn2 Ge2,0.918282977861932,3.0,1.054920167986144,59.04321772,4.0,8.8,1315.16,-33.120000000000005,4.8,1.624
Ca1 Mn3 Al9,0.2844738458788187,3.0,0.7902679680745903,34.440490771538464,3.3076923076923075,10.769230769230768,1082.5561538461538,-15.053254437869825,3.8461538461538463,1.5492307692307694
Ca1 Mn4 Al8,0.4354546314016257,3.0,0.8587409130062867,36.5909912123077,3.384615384615385,10.307692307692308,1127.5969230769233,-16.378698224852073,4.153846153846154,1.5446153846153847
Ca1 N1,0.36954443964729755,2.0,0.6931471805599453,27.0427,3.0,8.5,589.075,-201.0,3.5,2.02
Ca1 Ni5,0.3493375792721279,2.0,0.45056120886630463,55.59093333333334,4.0,8.666666666666668,1625.8333333333333,-3.8888888888888893,3.666666666666667,1.7583333333333333
Ca1 Ni5 H1,0.21040571130583544,3.0,0.7963116401738131,47.793371428571426,3.5714285714285716,7.571428571428572,1395.57,-16.0,3.2857142857142856,1.8214285714285714
Ca10 Co2 N8,0.20463987397849495,3.0,0.9433483923290392,31.53531944,3.2,7.9,759.56,-172.4,3.5,1.9040000000000001
Ca10 Fe2 N8,0.2748108418409233,3.0,0.9433483923290392,31.22652,3.2,7.800000000000001,763.86,-169.72000000000003,3.6,1.8990000000000002
Ca10 Mn2 N8,0.21019925248896396,3.0,0.9433483923290392,31.13580443,3.2,7.7,734.66,-176.04,3.7,1.8710000000000002
Ca10 Mn2 Pb6,0.20666205852899408,3.0,0.9368883075390159,97.44000492222223,4.666666666666667,6.555555555555555,988.4255555555555,-32.79012345679013,3.2222222222222223,1.3511111111111112
Ca12 Cr24 N48,0.26149907319250176,3.0,0.9556998911125343,28.585531428571425,2.8571428571428568,10.571428571428571,818.2285714285714,-129.30612244897958,4.857142857142857,2.354285714285714
Ca12 Mn8 N16,0.3346294738441464,3.0,1.0608569471580214,31.793254288888885,3.111111111111111,8.88888888888889,737.2888888888888,-160.49382716049382,4.444444444444445,2.028888888888889
Ca16 Cr16 N32,0.4316599121417452,3.0,1.0397207708399179,30.02214,3.0,9.5,855.325,-144.5,4.5,2.185
Ca16 V16 N32,0.2094024215932828,3.0,1.0397207708399179,29.7584775,3.0,9.25,856.075,-161.0,4.25,2.1775
Ca2 B4 H16,0.2512217890792489,3.0,0.7595473914748635,6.342036363636365,1.4545454545454546,3.272727272727273,538.6290909090909,-10.975206611570249,1.4545454545454546,2.061818181818182
Ca2 Co1 N2,0.4476974373647867,3.0,1.054920167986144,33.42079888000001,3.2,8.6,824.86,-152.00000000000003,3.8000000000000003,1.9920000000000002
Ca2 Cr2 N4,0.4361513807940211,3.0,1.0397207708399179,30.02214,3.0,9.5,855.325,-144.5,4.5,2.185
Ca2 Mg12 Cr2,0.26963628036413345,3.0,0.7356219397587946,29.73807,3.25,2.5,1104.125,9.125,2.5,1.315
Ca2 Mg12 Mn2,0.23681168347414827,3.0,0.7356219397587946,30.1058055375,3.25,2.625,1021.5,2.6875,2.625,1.30125
Ca2 Mg12 V2,0.2146112604925643,3.0,0.7356219397587946,29.60623875,3.25,2.375,1104.5,9.125,2.375,1.3112499999999998
Ca2 Mn2 Ge2,0.43989530528508736,3.0,1.0986122886681098,55.88241476666666,4.0,7.666666666666666,1281.8,-32.0,4.333333333333333,1.5199999999999998
Ca2 Mn2 N4,0.7926667795631934,3.0,1.0397207708399179,30.757611075,3.0,9.75,690.075,-155.25,4.75,2.1574999999999998
Ca2 Mn2 Sb4,0.41089115502387513,3.0,1.0397207708399179,84.634161075,4.5,9.75,1110.3899999999999,-31.75,4.75,1.6624999999999999
Ca2 Mn2 Si2,0.39239072815723425,3.0,1.0986122886681098,41.033814766666666,3.666666666666666,7.666666666666666,1440.3333333333333,-34.22222222222222,4.333333333333333,1.4833333333333332
Ca2 Mn2 Sn2,0.5966123209575848,3.0,1.0986122886681098,71.24238143333334,4.333333333333333,7.666666666666666,1046.36,-14.666666666666666,4.333333333333333,1.5033333333333332
Ca2 Ni10,0.28027745316429037,2.0,0.45056120886630463,55.59093333333334,4.0,8.666666666666668,1625.8333333333333,-3.8888888888888893,3.666666666666667,1.7583333333333333
Ca2 Ni10 H1,0.22668283067113348,3.0,0.6870920273799715,51.39224615384616,3.7692307692307696,8.076923076923077,1501.8453846153848,-10.934911242603551,3.461538461538462,1.7923076923076924