chemical formula,saturation magnetization,compoundradix,stoicentw,Zw,periodw,groupw,meltingTw,miedemaH,valencew,electronegw
Mg10 Fe2 N8,0.3759405158176006,3.0,0.9433483923290392,23.33982,2.7,7.800000000000001,667.86,-117.52000000000001,3.6,2.0540000000000003
Mg10 Mn2 N8,0.46083894788704766,3.0,0.9433483923290392,23.24910443,2.7,7.7,638.66,-124.24000000000001,3.7,2.0260000000000002
Mg10 Mn6,0.8338551415443791,2.0,0.6615632381579821,35.7923916125,3.375,3.875,1146.5,9.375,3.875,1.4000000000000001
Mg12 Al2 Cr2,0.2818599900557809,3.0,0.7356219397587946,28.100962321249998,3.125,3.875,1081.4337500000001,7.625,2.625,1.39125
Mg12 Al2 Fe2,0.1960158156334677,3.0,0.7356219397587946,28.58209232125,3.125,4.125,1035.3087500000001,5.3125,2.625,1.4125
Mg12 Al2 V2,0.21358422710559866,3.0,0.7356219397587946,27.969131071249997,3.125,3.75,1081.8087500000001,6.875,2.5,1.3875000000000002
Mg12 Cr2 B2,0.3046421912433395,3.0,0.7356219397587946,26.07952,3.0,3.875,1258.375,5.5625,2.625,1.4449999999999998
Mg12 Cr2 Bi2,0.26011460204436554,3.0,0.7356219397587946,50.850820125,3.5,4.125,1032.8375,6.75,2.875,1.4425
Mg12 Cr2 Cd2,0.28839683068506183,3.0,0.7356219397587946,38.780069999999995,3.375,3.75,1039.0275000000001,7.8125,2.5,1.40125
Mg12 Cr2 Co2,0.34775105139222284,3.0,0.7356219397587946,32.0949193,3.25,3.375,1185.75,9.875,2.875,1.425
Mg12 Cr2 Cu2,0.3046238005081406,3.0,0.7356219397587946,32.6715575,3.25,3.625,1134.47125,8.625,2.75,1.4275
Mg12 Cr2 Fe2,0.4770400735093615,3.0,0.7356219397587946,31.70892,3.25,3.25,1191.125,15.6875,3.0,1.4187500000000002
Mg12 Cr2 Ga2,0.28659232920210026,3.0,0.7356219397587946,33.4436575,3.25,3.875,1002.614325,7.4375,2.625,1.41625
Mg12 Cr2 Mo2,0.18029893160920152,3.0,0.7356219397587946,36.722145,3.375,3.0,1326.75,22.5,3.0,1.46
Mg12 Cr2 Ni2,0.3028312009007048,3.0,0.7356219397587946,32.064949999999996,3.25,3.5,1180.75,7.0625,2.75,1.42875
Mg12 Cr2 Sb2,0.2656063580340198,3.0,0.7356219397587946,39.948282500000005,3.375,4.125,1077.7224999999999,3.4375,2.875,1.44625
Mg12 Cr2 Si2,0.2752620932648048,3.0,0.7356219397587946,28.238895,3.125,4.0,1175.625,-3.0625,2.75,1.4275
Mg12 Cr2 Sn2,0.26114015868811835,3.0,0.7356219397587946,39.567107500000006,3.375,4.0,1027.885,6.25,2.75,1.435
Mg12 Cr2 W2,0.2076496173106604,3.0,0.7356219397587946,47.708394999999996,3.5,3.0,1426.625,23.3125,3.0,1.4849999999999999
Mg12 Cr4,0.5521823938224087,2.0,0.5623351446188083,31.22779,3.25,3.0,1237.25,18.0,3.0,1.3975
Mg12 Fe2 B2,0.19528877211532078,3.0,0.7356219397587946,26.56065,3.0,4.125,1212.25,3.625,2.625,1.46625
Mg12 Fe2 Co2,0.30067182251798275,3.0,0.7356219397587946,32.576049299999994,3.25,3.625,1139.625,7.8125,2.875,1.44625
Mg12 Fe2 Cu2,0.19504251709958204,3.0,0.7356219397587946,33.1526875,3.25,3.875,1088.34625,6.4375,2.75,1.44875
Mg12 Fe2 Ni2,0.21001852634357873,3.0,0.7356219397587946,32.546079999999996,3.25,3.75,1134.625,5.125,2.75,1.45
Mg12 Mn2 Al2,0.24878323764520452,3.0,0.7356219397587946,28.468697858749998,3.125,4.0,998.80875,1.8125,2.75,1.3775000000000002
Mg12 Mn2 B2,0.26761691166570456,3.0,0.7356219397587946,26.4472555375,3.0,4.0,1175.75,0.25,2.75,1.43125
Mg12 Mn2 Bi2,0.24038271223571075,3.0,0.7356219397587946,51.218555662499995,3.5,4.25,950.2125,0.1875,3.0,1.42875
Mg12 Mn2 Cd2,0.2599470369948364,3.0,0.7356219397587946,39.1478055375,3.375,3.875,956.4025,1.625,2.625,1.3875000000000002
Mg12 Mn2 Co2,0.36803611692503446,3.0,0.7356219397587946,32.4626548375,3.25,3.5,1103.125,4.5625,3.0,1.4112500000000001
Mg12 Mn2 Cr2,0.5554498729266658,3.0,0.7356219397587946,31.5955255375,3.25,3.125,1154.625,12.875,3.125,1.38375
Mg12 Mn2 Cu2,0.2859355769827008,3.0,0.7356219397587946,33.0392930375,3.25,3.75,1051.84625,2.875,2.875,1.41375
Mg12 Mn2 Fe2,0.458833960114109,3.0,0.7356219397587946,32.0766555375,3.25,3.375,1108.5,10.5,3.125,1.4050000000000002
Mg12 Mn2 Ga2,0.25663160426312837,3.0,0.7356219397587946,33.8113930375,3.25,4.0,919.989325,1.4375,2.75,1.4025
Mg12 Mn2 Mo2,0.18613871919975944,3.0,0.7356219397587946,37.089880537499994,3.375,3.125,1244.125,17.5625,3.125,1.44625
Mg12 Mn2 Nb2,0.18164268746165102,3.0,0.7356219397587946,36.709302037499995,3.375,3.0,1225.875,15.5,3.0,1.3762500000000002
Mg12 Mn2 Ni2,0.2995769807280712,3.0,0.7356219397587946,32.4326855375,3.25,3.625,1098.125,1.75,2.875,1.415
Mg12 Mn2 Sb2,0.24777490907014205,3.0,0.7356219397587946,40.3160180375,3.375,4.25,995.0975,-2.9375,3.0,1.4325
Mg12 Mn2 Si2,0.25767145209617015,3.0,0.7356219397587946,28.6066305375,3.125,4.125,1093.0,-8.8125,2.875,1.41375
Mg12 Mn2 Sn2,0.24297991505925942,3.0,0.7356219397587946,39.9348430375,3.375,4.125,945.26,-0.0625,2.875,1.4212500000000001
Mg12 Mn2 V2,0.4776490610134947,3.0,0.7356219397587946,31.463694287499997,3.25,3.0,1155.0,12.3125,3.0,1.38
Mg12 Mn2 W2,0.20299895162616055,3.0,0.7356219397587946,48.0761305375,3.5,3.125,1344.0,18.375,3.125,1.47125
Mg12 Mn2 Zn2,0.2661452136085682,3.0,0.7356219397587946,33.2687555375,3.25,3.875,968.71,1.875,2.625,1.3825
Mg12 Mn4 Ni8,0.40651802872567316,3.0,1.0114042647073518,40.87332071666667,3.4999999999999996,5.500000000000001,1290.6666666666667,-1.1111111111111112,3.4999999999999996,1.55
Mg12 Nb2 Cr2,0.19113757206675852,3.0,0.7356219397587946,36.3415665,3.375,2.875,1308.5,20.5625,2.875,1.3900000000000001
Mg12 Ti12,0.19307735990496436,2.0,0.6931471805599453,36.08605,3.5,3.0,1432.0,16.0,3.0,1.425
Mg12 Ti2 Mn2,0.26759372219973954,3.0,0.7356219397587946,31.079393037499997,3.25,2.875,1124.75,9.25,2.875,1.36875
Mg12 Ti2 V2,0.24608696873593017,3.0,0.7356219397587946,30.579826249999996,3.25,2.625,1207.75,14.5,2.625,1.3787500000000001
Mg12 V2 B2,0.1978045691706269,3.0,0.7356219397587946,25.947688749999998,3.0,3.75,1258.75,4.5,2.5,1.4412500000000001
Mg12 V2 Bi2,0.21339973367132906,3.0,0.7356219397587946,50.718988874999994,3.5,4.0,1033.2125,5.5,2.75,1.4387500000000002
Mg12 V2 Cd2,0.21757360283242977,3.0,0.7356219397587946,38.64823875,3.375,3.625,1039.4025000000001,6.9375,2.375,1.3975
Mg12 V2 Co2,0.24575860486298517,3.0,0.7356219397587946,31.963088049999996,3.25,3.25,1186.125,8.875,2.75,1.4212500000000001
Mg12 V2 Cr2,0.5069351833962644,3.0,0.7356219397587946,31.095958749999998,3.25,2.875,1237.625,17.5,2.875,1.3937499999999998
Mg12 V2 Cu2,0.22711392285740875,3.0,0.7356219397587946,32.53972625,3.25,3.5,1134.84625,7.8125,2.625,1.42375
Mg12 V2 Fe2,0.3247205796788837,3.0,0.7356219397587946,31.577088749999998,3.25,3.125,1191.5,14.9375,2.875,1.415
Mg12 V2 Ga2,0.21500063192980717,3.0,0.7356219397587946,33.311826249999996,3.25,3.75,1002.989325,6.625,2.5,1.4125
Mg12 V2 Ni2,0.2277484960171609,3.0,0.7356219397587946,31.93311875,3.25,3.375,1181.125,6.0,2.625,1.4249999999999998
Mg12 V2 Sb2,0.2158080884074976,3.0,0.7356219397587946,39.81645125,3.375,4.0,1078.0974999999999,2.125,2.75,1.4425
Mg12 V2 Si2,0.21304159480238366,3.0,0.7356219397587946,28.10706375,3.125,3.875,1176.0,-4.125,2.625,1.42375
Mg12 V2 Sn2,0.2103996339507423,3.0,0.7356219397587946,39.43527625,3.375,3.875,1028.26,5.1875,2.625,1.43125
Mg12 V2 Zn2,0.2179126048737603,3.0,0.7356219397587946,32.76918875,3.25,3.625,1051.71,7.0,2.375,1.3925
Mg12 Zn2 Cr2,0.2963595185429204,3.0,0.7356219397587946,32.90102,3.25,3.75,1051.335,7.8125,2.5,1.39625
Mg12 Zn2 Fe2,0.18394493082970295,3.0,0.7356219397587946,33.382149999999996,3.25,4.0,1005.21,5.5,2.5,1.4175
Mg12 Zr2 Cr2,0.2349267724113182,3.0,0.7356219397587946,36.131294999999994,3.375,2.75,1230.75,10.5,2.75,1.3562500000000002
Mg12 Zr2 Mn2,0.18933850754872672,3.0,0.7356219397587946,36.4990305375,3.375,2.875,1148.125,5.0625,2.875,1.3425000000000002
Mg12 Zr2 V2,0.2104701780841502,3.0,0.7356219397587946,35.99946375,3.375,2.625,1231.125,10.625,2.625,1.3525
Mg14 Cr1 Fe1,0.24195238317021484,3.0,0.46341355882643,28.00696,3.125,2.625,1057.0625,9.171875,2.5,1.3643750000000001
Mg14 Cr1 Mo1,0.24735877264547718,3.0,0.46341355882643,30.513572500000002,3.1875,2.5,1124.875,13.125,2.5,1.385
Mg14 Mn1 Co1,0.1913409363249036,3.0,0.46341355882643,28.38382741875,3.125,2.75,1013.0625,2.765625,2.5,1.360625
Mg14 Mn1 Cr1,0.27458496731497006,3.0,0.46341355882643,27.95026276875,3.125,2.5625,1038.8125,7.46875,2.5625,1.346875
Mg14 Mn1 Fe1,0.22181251285045203,3.0,0.46341355882643,28.190827768749998,3.125,2.6875,1015.75,6.125,2.5625,1.3575000000000002
Mg14 Mn1 V1,0.24207290197679018,3.0,0.46341355882643,27.88434714375,3.125,2.5,1039.0,7.203125,2.5,1.345
Mg14 Ti1 Cr1,0.19421540804420073,3.0,0.46341355882643,27.50832875,3.125,2.375,1065.1875,8.640625,2.375,1.34625
Mg14 Ti1 Mn1,0.19674764045957283,3.0,0.46341355882643,27.69219651875,3.125,2.4375,1023.875,5.5625,2.4375,1.339375
Mg14 V1 Cr1,0.25427348699900226,3.0,0.46341355882643,27.700479375,3.125,2.4375,1080.3125,10.25,2.4375,1.351875
Mg14 V1 Fe1,0.2083823837841758,3.0,0.46341355882643,27.941044374999997,3.125,2.5625,1057.25,8.859375,2.4375,1.3625
Mg16 Mn16 N32,0.238490133971999,3.0,1.0397207708399179,26.814261075,2.75,9.75,642.075,-124.0,4.75,2.2350000000000003
Mg16 Mn6 N18,0.30531104736125814,3.0,1.0104127537805414,24.265856645,2.7,8.6,625.4675000000001,-126.21000000000001,4.1000000000000005,2.1245000000000003
Mg2 Co6,1.0677790780519338,2.0,0.5623351446188083,50.276145799999995,3.75,7.25,1556.75,2.25,4.25,1.7374999999999998
Mg2 Fe10 N8,0.6845558651253986,3.0,0.9433483923290392,35.9559,3.0999999999999996,10.200000000000001,1023.06,-87.44000000000001,5.2,2.262
Mg2 Mn10 N8,0.8331756600775323,3.0,0.9433483923290392,35.502322150000005,3.0999999999999996,9.700000000000001,877.06,-114.64000000000001,5.7,2.1220000000000003
Mg2 Mn2,1.133639580191209,2.0,0.6931471805599453,39.621522150000004,3.5,4.5,1221.0,10.0,4.5,1.4300000000000002
Mg2 Mn2 Ge2,0.7850336265774357,3.0,1.0986122886681098,50.62461476666666,3.666666666666666,7.666666666666666,1217.8,-21.333333333333332,4.333333333333333,1.623333333333333
Mg2 Mn2 N4,0.2599270762840078,3.0,1.0397207708399179,26.814261075,2.75,9.75,642.075,-124.0,4.75,2.2350000000000003
Mg2 Nb1 Fe1,0.43847639985091796,3.0,1.0397207708399179,49.340393,3.75,4.25,1601.75,21.0,3.75,1.5125000000000002
Mg2 Ni6,0.26846825404049823,2.0,0.5623351446188083,50.09633,3.75,8.0,1526.75,-3.0,3.5,1.76
Mg2 Ti4,0.29166730779422373,2.0,0.6365141682948129,40.01306666666667,3.6666666666666665,3.333333333333333,1601.6666666666665,14.222222222222221,3.333333333333333,1.4633333333333334
Mg2 Zn2 Co2,0.30268828055862745,3.0,1.0986122886681098,49.540064799999996,3.666666666666666,7.666666666666667,1127.8933333333332,-2.666666666666667,3.0,1.6133333333333333
Mg20 Mn16,0.9191997403747733,2.0,0.6869615765973233,37.919686355555555,3.4444444444444446,4.222222222222222,1187.888888888889,9.876543209876543,4.222222222222222,1.4166666666666667
Mg3 Co1,0.18349155079320395,2.0,0.5623351446188083,32.962048599999996,3.25,3.75,1134.25,2.25,2.75,1.4525000000000001
Mg3 Cr1,0.6119222862714304,2.0,0.5623351446188083,31.22779,3.25,3.0,1237.25,18.0,3.0,1.3975
Mg3 Fe1,0.3691428386808538,2.0,0.5623351446188083,32.19005,3.25,3.5,1145.0,13.5,3.0,1.44
Mg3 Mn1,0.5348062939636741,2.0,0.5623351446188083,31.963261075,3.25,3.25,1072.0,7.5,3.25,1.37
Mg3 Ti1,0.2423014842634804,2.0,0.5623351446188083,30.195524999999996,3.25,2.5,1177.5,12.0,2.5,1.3675000000000002
Mg3 Ti3,0.19678804296050104,2.0,0.6931471805599453,36.08605,3.5,3.0,1432.0,16.0,3.0,1.425
Mg3 V1,0.4152289434973841,2.0,0.5623351446188083,30.964127499999996,3.25,2.75,1238.0,17.25,2.75,1.3900000000000001
Mg4 Cd2 N4,0.18717375227771343,3.0,1.054920167986144,37.807680000000005,3.0,9.200000000000001,513.3040000000001,-116.80000000000003,3.2,2.0780000000000003
Mg4 Co2 N4,0.1997440123985119,3.0,1.054920167986144,27.11143888,2.8,8.6,748.0600000000001,-108.80000000000003,3.8000000000000003,2.116
Mg4 Co4 Ni4,0.4629954751059216,3.0,1.0986122886681098,47.3105448,3.666666666666666,7.0,1473.0,-0.4444444444444444,3.666666666666666,1.7
Mg4 Co8,0.9263112584543498,2.0,0.6365141682948129,47.39046293333333,3.6666666666666665,6.666666666666666,1486.333333333333,2.6666666666666665,4.0,1.69
Mg4 Cr4 N8,0.4984682337938639,3.0,1.0397207708399179,26.07879,2.75,9.5,807.325,-114.5,4.5,2.2625
Mg4 Fe2,0.4881717017316094,2.0,0.6365141682948129,34.8184,3.333333333333333,4.0,1219.0,16.0,3.333333333333333,1.4833333333333334
Mg4 Fe2 N4,0.3892954264849792,3.0,1.054920167986144,26.49384,2.8,8.4,756.6600000000001,-107.84000000000002,4.0,2.1060000000000003
Mg4 Mn2 Ga6,0.31014614214965985,3.0,1.0114042647073516,52.11955738333334,3.6666666666666665,8.333333333333334,712.2906333333333,-4.777777777777777,3.333333333333333,1.6
Mg4 Mn2 N4,0.4010532201676267,3.0,1.054920167986144,26.31240886,2.8,8.200000000000001,698.26,-120.64000000000001,4.2,2.0500000000000003
Mg4 Mn2 N6,0.32393442692498675,3.0,1.0114042647073518,24.26150738333333,2.6666666666666665,9.333333333333334,592.4083333333333,-126.77777777777777,4.333333333333333,2.215
Mg4 Mn4 N8,0.2567691867579891,3.0,1.0397207708399179,26.814261075,2.75,9.75,642.075,-124.0,4.75,2.2350000000000003
Mg4 Ti2,0.3704889619957188,2.0,0.6365141682948129,32.15903333333333,3.333333333333333,2.6666666666666665,1262.3333333333333,14.222222222222221,2.6666666666666665,1.3866666666666667
Mg4 Ti4,0.3430220075456775,2.0,0.6931471805599453,36.08605,3.5,3.0,1432.0,16.0,3.0,1.425
Mg4 V4 N8,0.24052039979185122,3.0,1.0397207708399179,25.8151275,2.75,9.25,808.075,-132.75,4.25,2.255
Mg4 Zn2 N4,0.22595378959018508,3.0,1.054920167986144,28.4012,2.8,9.200000000000001,532.9960000000001,-115.20000000000002,3.2,2.0700000000000003
Mg5 Mn1 Sb4,0.21815009668328691,3.0,0.9433483923290392,66.35034443,3.9,7.7,974.9119999999999,-12.56,3.7,1.6300000000000001
Mg5 Ti5,0.21106783446995955,2.0,0.6931471805599453,36.08605,3.5,3.0,1432.0,16.0,3.0,1.425
Mg6 Cr2,0.5508458501383764,2.0,0.5623351446188083,31.22779,3.25,3.0,1237.25,18.0,3.0,1.3975
Mg6 Cr4 N8,0.46112950158641536,3.0,1.0608569471580214,25.88170222222222,2.7777777777777777,8.666666666666666,820.1777777777777,-114.5679012345679,4.222222222222222,2.1566666666666667
Mg6 Fe1 Ni1,0.20346975313034465,3.0,0.7356219397587946,32.546079999999996,3.25,3.75,1134.625,5.125,2.75,1.45
Mg6 Fe1 Si1,0.18152941048305543,3.0,0.7356219397587946,28.720025,3.125,4.25,1129.5,-5.1875,2.75,1.44875
Mg6 Fe2,0.33978554115602483,2.0,0.5623351446188083,32.19005,3.25,3.5,1145.0,13.5,3.0,1.44
Mg6 Fe2 N6,0.4242000482680201,3.0,1.0042424730540764,24.397314285714284,2.714285714285714,8.428571428571429,681.3499999999999,-115.3469387755102,3.8571428571428568,2.1257142857142854
Mg6 Mn2,0.44859965480481356,2.0,0.5623351446188083,31.963261075,3.25,3.25,1072.0,7.5,3.25,1.37
Mg6 Ti2,0.22558760167534067,2.0,0.5623351446188083,30.195524999999996,3.25,2.5,1177.5,12.0,2.5,1.3675000000000002
Mg6 Ti6,0.18768288052133458,2.0,0.6931471805599453,36.08605,3.5,3.0,1432.0,16.0,3.0,1.425
Mg6 Ti8,0.2552170159560218,2.0,0.6829081047004717,37.76905714285714,3.571428571428571,3.142857142857143,1504.7142857142858,15.6734693877551,3.142857142857143,1.4414285714285713
Mg6 V2,0.41112968351960705,2.0,0.5623351446188083,30.964127499999996,3.25,2.75,1238.0,17.25,2.75,1.3900000000000001
Mg6 Zn1 Fe1,0.1880658190383545,3.0,0.7356219397587946,33.382149999999996,3.25,4.0,1005.21,5.5,2.5,1.4175
Mg7 Cr1,0.2864354506852729,2.0,0.37677016125643675,27.766395,3.125,2.5,1080.125,10.5,2.5,1.35375
Mg7 Mn1,0.2551417754144253,2.0,0.37677016125643675,28.1341305375,3.125,2.625,997.5,4.375,2.625,1.34
Mg7 V1,0.21787728732711803,2.0,0.37677016125643675,27.634563749999998,3.125,2.375,1080.5,10.0625,2.375,1.35
Mg8 Fe3 N8,0.3919385808863673,3.0,1.0198652142779299,24.949031578947366,2.7368421052631575,8.421052631578947,701.1684210526315,-113.37396121883656,3.894736842105263,2.1205263157894736
Mg8 Mn2 N8,0.33146894688959516,3.0,0.9649629230074277,23.1317827,2.6666666666666665,8.333333333333332,607.0666666666666,-127.40740740740739,3.8888888888888884,2.1055555555555556
Mg8 Mn3 N8,0.2531199140307911,3.0,1.0198652142779299,24.80579646842105,2.7368421052631575,8.263157894736842,655.0631578947367,-124.01108033240996,4.052631578947368,2.0763157894736843
Mg8 Ti4,0.30989978667599194,2.0,0.6365141682948129,32.15903333333333,3.333333333333333,2.6666666666666665,1262.3333333333333,14.222222222222221,2.6666666666666665,1.3866666666666667
Mg9 Fe2 N8,0.3023136163020635,3.0,0.955131195451464,23.289021052631576,2.6842105263157894,8.105263157894736,654.4315789473683,-118.73684210526314,3.6842105263157894,2.093157894736842
Mg9 Mn2 N8,0.20064746108914402,3.0,0.955131195451464,23.193530978947365,2.6842105263157894,8.0,623.6947368421052,-126.00554016620497,3.789473684210526,2.063684210526316
Mn1,1.2357393381645791,1.0,-0.0,54.9380443,4.0,7.0,1519.0,0.0,7.0,1.55
Mn1 Ag1 N1,0.24756652255651143,3.0,1.0986122886681098,58.93775476666666,3.6666666666666665,11.0,939.0266666666666,-88.88888888888889,5.333333333333333,2.1733333333333333
Mn1 Al1,0.8740233781945266,2.0,0.6931471805599453,40.959791435,3.5,10.0,1226.2350000000001,-19.0,5.0,1.58
Mn1 Al1 Au2,0.7507559045766177,3.0,1.0397207708399179,118.9631804675,4.75,10.5,1281.7825,-21.25,5.0,2.06
Mn1 Al1 Co2,1.0614173808691865,3.0,1.0397207708399179,49.9464929175,3.75,9.5,1497.1175,-16.75,5.0,1.73
Mn1 Al1 Cu1 Pd1,0.7983700445949298,4.0,1.3862943611198906,62.971720717500006,4.0,10.25,1409.5725,-24.75,4.5,1.8150000000000002
Mn1 Al1 Cu2,0.7861110291272326,3.0,1.0397207708399179,52.2530457175,3.75,10.5,1292.0025,-3.25,4.5,1.74
Mn1 Al1 Fe1 Co1,0.7580942658669587,4.0,1.3862943611198906,49.1744943175,3.75,9.25,1507.8675,-13.75,5.25,1.7175
Mn1 Al1 Fe2,1.0841744842980177,3.0,1.0397207708399179,48.4024957175,3.75,9.0,1518.6175,-10.25,5.5,1.705
Mn1 Al1 Ni2,1.1794361359459336,3.0,1.0397207708399179,49.826615717500005,3.75,10.0,1477.1175,-19.75,4.5,1.7449999999999999
Mn1 Al1 Ni6,0.6154576938982932,3.0,0.7356219397587946,54.26002785875,3.875,10.0,1602.55875,-12.4375,4.25,1.8275000000000001
Mn1 Al1 Os2,0.468552442043388,3.0,1.0397207708399179,115.5963957175,4.75,9.0,2266.1175000000003,-18.25,6.5,1.8900000000000001
Mn1 Al1 Pd2,0.8111458004417336,3.0,1.0397207708399179,73.6903957175,4.25,10.0,1527.1425,-39.25,4.5,1.8900000000000001
Mn1 Al1 Pt2,0.802398288100567,3.0,1.0397207708399179,118.0223457175,4.75,10.0,1633.8175,-40.75,5.5,1.93
Mn1 Al1 Rh2,0.9185164932506094,3.0,1.0397207708399179,71.9326467175,4.25,9.5,1731.6175,-28.75,5.5,1.93
Mn1 Al1 Ru2,0.47646657212773424,3.0,1.0397207708399179,71.0158957175,4.25,9.0,1916.6175,-20.75,6.5,1.8900000000000001
Mn1 Al1 Tc1,0.8886230945281773,3.0,1.0986122886681098,59.973194289999995,4.0,9.0,1627.49,-20.888888888888893,5.666666666666666,1.6866666666666665
Mn1 Al1 V2,0.44254302271403756,3.0,1.0397207708399179,45.9506507175,3.75,7.5,1704.6175,-13.25,5.0,1.605
Mn1 Al2 Co1,0.4438727773300145,3.0,1.0397207708399179,41.95857896,3.5,10.5,1288.4850000000001,-20.25,4.5,1.6624999999999999
Mn1 Al2 Cu1,0.48635092635547367,3.0,1.0397207708399179,43.11185536,3.5,11.0,1185.9275,-9.0,4.25,1.6675
Mn1 Al2 Ni1,0.6675009994236105,3.0,1.0397207708399179,41.89864036,3.5,10.75,1278.4850000000001,-22.5,4.25,1.67
Mn1 Al2 Tc1,0.7009397634611882,3.0,1.0397207708399179,51.72528036,3.75,10.0,1453.9850000000001,-21.5,5.0,1.6675
Mn1 Au1,1.4765293341738925,2.0,0.6931471805599453,125.9523069,5.0,9.0,1428.165,-11.0,6.0,2.045
Mn1 Au2,0.9724796634293517,2.0,0.6365141682948129,149.62372776666666,5.333333333333333,9.666666666666666,1397.8866666666665,-9.777777777777777,5.666666666666666,2.21
Mn1 Au3,0.706150653764992,2.0,0.5623351446188083,161.4594382,5.5,10.0,1382.7475,-8.25,5.5,2.2925
Mn1 Au4,0.5564216253757286,2.0,0.5004024235381879,168.56086446,5.6000000000000005,10.200000000000001,1373.664,-7.040000000000001,5.4,2.342
Mn1 B2,1.4255364686164966,2.0,0.6365141682948129,25.5193481,2.6666666666666665,11.0,2072.3333333333335,-28.444444444444443,4.333333333333333,1.8766666666666665
Mn1 B4,0.20486958804845562,2.0,0.5004024235381879,19.63560886,2.4000000000000004,11.8,2183.0,-20.480000000000004,3.8000000000000003,1.9420000000000002
Mn1 B4 Mo3,0.2815983134076987,3.0,0.9743147528693494,48.253880537499995,3.375,9.625,2450.375,-32.5625,4.625,2.02375
Mn1 B4 W3,0.3919990171690308,3.0,0.9743147528693494,81.2126305375,3.75,9.625,2750.0,-30.125,4.625,2.09875
Mn1 Be1 Ru2,0.47773368143547074,3.0,1.0397207708399179,66.5235568625,4.0,6.25,2073.25,-9.5,6.25,1.8800000000000001