chemical formula,saturation magnetization,compoundradix,stoicentw,Zw,periodw,groupw,meltingTw,miedemaH,valencew,electronegw
Sr3 W1,0.22492061498392069,2.0,0.5623351446188083,111.676,5.25,3.0,1711.25,52.5,3.0,1.3024999999999998
Sr3 Zr1,0.18831120093250936,2.0,0.5623351446188083,88.5218,5.0,2.5,1319.5,36.0,2.5,1.045
Sr4 Cr4 N8,0.19880217863991195,3.0,1.0397207708399179,41.907790000000006,3.25,9.5,839.075,-144.75,4.5,2.1725
Sr4 Li2 Co2 N4,0.21419619076328889,4.0,1.3296613488547582,44.85486573333333,3.333333333333333,7.333333333333333,741.3249999999999,-137.33333333333334,3.333333333333333,1.8066666666666666
Sr4 Li2 Fe4 N6,0.29040863450518656,4.0,1.320888343149322,41.986675,3.25,8.25,795.6374999999999,-125.3125,4.0,1.9575
Sr4 Mn4 Bi8,0.3909981121668906,3.0,1.0397207708399179,140.12996157499998,5.25,9.75,914.6,-22.25,4.75,1.635
Sr4 Mn4 N8,0.3991666101188101,3.0,1.0397207708399179,42.643261075,3.25,9.75,673.825,-155.75,4.75,2.145
Sr4 Mn4 Sb8,0.39575149666666826,3.0,1.0397207708399179,96.51981107499999,4.75,9.75,1094.1399999999999,-31.75,4.75,1.65
Sr4 N4,0.2973809581014149,2.0,0.6931471805599453,50.814,3.5,8.5,556.575,-206.0,3.5,1.995
Sr6 Fe2,0.1906648022514437,2.0,0.5623351446188083,79.67705,4.75,3.5,1240.25,25.5,3.0,1.17
Sr6 Fe2 N6,0.19333418794293739,3.0,1.0042424730540764,51.53274285714285,3.5714285714285716,8.428571428571429,735.7785714285715,-164.32653061224485,3.8571428571428568,1.9714285714285713
Sr6 Fe6 N10,0.21695578522782524,3.0,1.0670895187820832,45.49396363636363,3.3636363636363633,9.545454545454545,808.9772727272727,-135.17355371900825,4.454545454545454,2.1399999999999997
Sr8 Co3 N8,0.18157212468175976,3.0,1.0198652142779299,52.095978063157894,3.578947368421052,8.578947368421051,747.8526315789474,-163.36842105263156,3.7368421052631575,1.9768421052631577
Sr8 Fe3 N8,0.2601054367733557,3.0,1.0198652142779299,51.608399999999996,3.578947368421052,8.421052631578947,754.6421052631578,-160.17728531855954,3.894736842105263,1.9689473684210526
Sr8 Mn2 Fe1 N8,0.19111420895541706,4.0,1.1203674513771107,51.512909926315785,3.5789473684210527,8.31578947368421,723.9052631578946,-167.0914127423822,4.0,1.9394736842105262
Sr8 Mn4 N8,0.3513809634757353,3.0,1.054920167986144,51.638808860000005,3.5999999999999996,8.200000000000001,749.06,-161.28000000000003,4.2,1.9060000000000001
Sr8 Ni3 N8,0.18292888499960497,3.0,1.0198652142779299,52.05812210526316,3.578947368421052,8.736842105263158,741.5368421052631,-164.69806094182823,3.578947368421052,1.9815789473684209
Sr8 Ni4 N8,0.25050064600768424,3.0,1.054920167986144,52.389888000000006,3.5999999999999996,8.8,790.86,-154.24000000000004,3.6,1.9780000000000002
Ta1 Al1 Co2,0.4491118604174342,3.0,1.0397207708399179,81.44895234250001,4.25,9.0,1939.8675,-26.25,4.5,1.7175
Ta1 Co1,0.7253345544271103,2.0,0.6931471805599453,119.94053819999999,5.0,7.0,2529.0,-24.0,5.0,1.69
Ta1 Co1 Sn2,0.30418098597701226,3.0,1.0397207708399179,119.3256191,5.0,10.5,1517.04,-7.5,4.5,1.825
Ta1 Co3,0.46127746609359627,2.0,0.5623351446188083,89.43686629999999,4.5,8.0,2148.5,-18.0,5.0,1.785
Ta1 Co6 Mo1,0.35350025343423336,3.0,0.7356219397587946,78.81225605,4.375,8.125,2099.25,-11.1875,5.125,1.8675
Ta1 Cr1 B4,0.43852469459247406,3.0,0.8675632284814613,46.03067366666666,3.0,10.5,2477.6666666666665,-38.55555555555556,3.833333333333333,1.8866666666666665
Ta1 Fe1 Ru2,0.9534888699444969,3.0,1.0397207708399179,109.7342705,5.0,7.25,2578.75,-25.75,6.75,1.9325
Ta1 Fe1 Sb1,0.2760011164492754,3.0,1.0986122886681098,119.51772733333331,5.0,9.333333333333332,2001.5933333333332,-7.999999999999999,5.333333333333333,1.7933333333333332
Ta1 Fe2 Ge1,0.23024540127129772,3.0,1.0397207708399179,91.31727049999999,4.5,8.75,2030.85,-24.625,5.25,1.7925
Ta1 Ga1 Co2,0.45100409191482554,3.0,1.0397207708399179,92.13434269999999,4.5,9.0,1782.22865,-20.0,4.5,1.7675
Ta1 Ge1 Ru2,0.18071809255173965,3.0,1.0397207708399179,113.9306705,5.0,8.75,2428.85,-38.125,6.25,1.9775
Ta1 Mn1 Ru2,0.8298279216141385,3.0,1.0397207708399179,109.507481575,5.0,7.0,2505.75,-26.0,7.0,1.8625
Ta1 Mn2 Al1,0.4395834680234363,3.0,1.0397207708399179,79.4513772925,4.25,8.0,1815.3675,-16.25,5.5,1.5525
Ta1 Mn2 B4,0.8782809537502965,3.0,0.9556998911125343,47.723424371428564,3.142857142857143,10.142857142857142,2246.285714285714,-39.183673469387756,4.428571428571429,1.8228571428571427
Ta1 Mn2 Ga1,0.4407954601909722,3.0,1.0397207708399179,90.13676765,4.5,8.0,1657.72865,-11.0,5.5,1.6025
Ta1 Mn2 Ge1,0.22498793345051593,3.0,1.0397207708399179,90.86369264999999,4.5,8.25,1884.85,-27.125,5.75,1.6524999999999999
Ta1 Ti1 Al1,0.34762236560074117,3.0,1.0986122886681098,85.26550685666666,4.333333333333333,7.333333333333333,2054.8233333333333,-21.333333333333336,3.9999999999999996,1.55
Ta1 Ti1 Be4,0.2060296564026091,3.0,0.8675632284814613,44.14395243333333,3.0,2.8333333333333335,1911.8333333333333,-23.88888888888889,2.8333333333333335,1.5533333333333332
Ta1 Ti1 Fe2,0.2133230500667303,3.0,1.0397207708399179,85.1263455,4.5,6.25,2213.25,-15.75,5.25,1.675
Ta1 V1 H4,0.3031937973280409,3.0,0.8675632284814613,39.320232,2.333333333333333,2.333333333333333,921.4933333333332,-37.888888888888886,2.333333333333333,1.9883333333333333
Ta1 V1 N2,0.3307509170815105,3.0,1.0397207708399179,64.975848,3.5,10.0,1399.825,-158.25,5.0,2.3025
Ta1 Zn1 Co2,0.24015014845865842,3.0,1.0397207708399179,91.0490677,4.5,8.75,1879.67,-15.25,4.25,1.7275
Ta11 Co104 B30,0.7108023924380694,3.0,0.7599791013078193,58.23295806620689,3.7379310344827585,9.524137931034483,2003.6689655172413,-22.859643281807372,4.586206896551724,1.8842758620689652
Ta13 Fe13,0.5326921439083175,2.0,0.6931471805599453,118.396541,5.0,6.5,2550.5,-15.0,5.5,1.665
Ta16 Co8 N4,0.25306467627115126,3.0,0.9556998911125344,122.23784525714285,4.857142857142857,7.57142857142857,2394.1642857142856,-84.40816326530611,5.0,1.8285714285714283
Ta2 Al2 Fe8,0.8318460224682386,3.0,0.8675632284814613,71.88503676166665,4.166666666666666,8.333333333333334,1911.245,-13.666666666666666,5.333333333333333,1.7383333333333333
Ta2 Co21 B6,0.7406411405320068,3.0,0.7441295414112981,57.39147746206896,3.7241379310344827,9.551724137931036,1993.1724137931035,-22.259215219976216,4.586206896551724,1.8868965517241378
Ta2 Co4,0.3420366595376961,2.0,0.6365141682948129,99.60475693333332,4.666666666666666,7.666666666666667,2275.333333333333,-21.333333333333332,5.0,1.7533333333333332
Ta2 Co8 Mo2,0.3258704301097706,3.0,0.8675632284814613,85.43860993333332,4.5,7.833333333333334,2209.666666666666,-13.444444444444443,5.166666666666666,1.8633333333333333
Ta2 Fe1 Os1,0.3271585425832967,3.0,1.0397207708399179,151.993491,5.5,6.5,2924.25,-27.5,6.0,1.7575
Ta2 Fe1 Ru1,0.30660885740462407,3.0,1.0397207708399179,129.703241,5.25,6.5,2749.5,-28.25,6.0,1.7575
Ta2 Fe8 Si2,0.849264720334778,3.0,0.8675632284814613,72.068947,4.166666666666666,8.500000000000002,2036.8333333333333,-28.444444444444443,5.499999999999999,1.7866666666666666
Ta2 Fe8 W2,0.860925265614207,3.0,0.8675632284814613,98.02828033333333,4.666666666666666,7.166666666666667,2371.5,-7.444444444444444,5.833333333333333,1.8633333333333333
Ta2 Mn4 N6,0.3636265054607095,3.0,1.0114042647073518,55.47416176666666,3.333333333333333,10.666666666666666,1086.2416666666666,-137.88888888888889,5.666666666666666,2.2866666666666666
Ta2 N4,0.41590037953108805,2.0,0.6365141682948129,69.65396066666666,3.333333333333333,11.666666666666666,1138.7666666666664,-153.77777777777777,5.0,2.5266666666666664
Ta2 Ti1 Re1,0.21091741387129692,3.0,1.0397207708399179,148.992491,5.5,5.25,2995.0,-17.75,5.25,1.6099999999999999
Ta2 Ti2 Fe8,0.47564070213117304,3.0,0.8675632284814613,75.36596366666666,4.333333333333333,6.833333333333334,2079.1666666666665,-14.11111111111111,5.5,1.7266666666666666
Ta2 V1 Re1,0.1872972838315694,3.0,1.0397207708399179,149.7610935,5.5,5.5,3055.5,-15.75,5.5,1.6325
Ta3 Al1 Co8,0.2882814352911444,3.0,0.8239592165010823,86.77422831416666,4.416666666666666,8.333333333333332,2078.9558333333334,-21.805555555555557,4.833333333333333,1.7625
Ta3 Al1 Fe8,0.731527541374898,3.0,0.8239592165010823,84.71556538083333,4.416666666666666,7.666666666666666,2107.6225,-14.027777777777779,5.5,1.7291666666666667
Ta3 Co8 Si1,0.2059069043882986,3.0,0.8239592165010823,86.86618343333333,4.416666666666666,8.416666666666666,2141.75,-29.11111111111111,4.916666666666666,1.7866666666666666
Ta3 Co9,0.23136523878871051,2.0,0.5623351446188083,89.43686629999999,4.5,8.0,2148.5,-18.0,5.0,1.785
Ta3 Fe3 B3,0.24034504709681187,3.0,1.0986122886681098,82.53436066666666,3.9999999999999996,8.666666666666666,2483.333333333333,-42.22222222222222,4.666666666666666,1.7899999999999998
Ta3 Fe8 Si1,0.683358670807067,3.0,0.8239592165010823,84.8075205,4.416666666666666,7.75,2170.4166666666665,-22.444444444444443,5.583333333333333,1.7533333333333334
Ta3 Mn1 N4,0.5772136076792334,3.0,0.9743147528693494,81.7262112875,3.75,10.25,1455.2,-160.25,5.25,2.27625
Ta3 Mn3 Ge3,0.7633290232033172,3.0,1.0986122886681098,102.83890876666665,4.666666666666666,8.666666666666666,2006.7999999999997,-32.44444444444444,5.333333333333333,1.6866666666666665
Ta3 Mn8 Al1,0.6973130077611487,3.0,0.8239592165010823,84.11079491416666,4.416666666666666,7.0,1912.9558333333332,-8.472222222222221,6.166666666666666,1.5425
Ta3 Mn8 Si1,0.19225243039040826,3.0,0.8239592165010823,84.20275003333333,4.416666666666666,7.083333333333333,1975.75,-17.333333333333332,6.25,1.5666666666666667
Ta4 Al4 Fe4,0.3660147766523403,3.0,1.0986122886681098,87.92487352333332,4.333333333333333,8.666666666666666,2011.4899999999998,-20.0,4.666666666666667,1.6466666666666667
Ta4 Co8,0.9547367655661447,2.0,0.6365141682948129,99.60475693333332,4.666666666666666,7.666666666666667,2275.333333333333,-21.333333333333332,5.0,1.7533333333333332
Ta4 Cr8 Si10,0.22062816805689345,3.0,1.0361987848192837,64.57321854545455,3.909090909090909,9.454545454545453,2157.727272727273,-44.82644628099174,4.909090909090909,1.7399999999999998
Ta4 Fe2 B4,0.2676039500289504,3.0,1.054920167986144,87.8721928,4.0,8.8,2617.8,-47.680000000000014,4.4,1.7820000000000003
Ta4 Fe8,1.2464165639403364,2.0,0.6365141682948129,97.54609399999998,4.666666666666666,7.0,2304.0,-13.333333333333332,5.666666666666667,1.72
Ta4 Mn8,0.5385238833270303,2.0,0.6365141682948129,96.94132353333332,4.666666666666666,6.333333333333333,2109.333333333333,-3.5555555555555554,6.333333333333333,1.5333333333333332
Ta4 Mn8 N12,0.9986686104013685,3.0,1.0114042647073518,55.47416176666666,3.333333333333333,10.666666666666666,1086.2416666666666,-137.88888888888889,5.666666666666666,2.2866666666666666
Ta4 Mn8 Si10,0.736922185663365,3.0,1.0361987848192837,65.64299465454546,3.909090909090909,9.818181818181817,1917.3636363636363,-49.32231404958678,5.2727272727272725,1.7
Ta4 Ni6 Ge2,0.24509657079408942,3.0,1.0114042647073518,101.76781399999999,4.666666666666666,9.0,2162.5666666666666,-35.5,4.333333333333333,1.79
Ta6 Co16 Ge7,0.2695187232600906,3.0,0.997180401897094,87.48393111724138,4.413793103448276,9.379310344827587,1948.5448275862068,-29.902497027348396,4.758620689655173,1.8327586206896551
Ta6 Co18,0.5214910284003771,2.0,0.5623351446188083,89.43686629999999,4.5,8.0,2148.5,-18.0,5.0,1.785
Ta6 Fe7,0.5502485262426736,2.0,0.6901856760188042,113.58489938461538,4.923076923076923,6.615384615384615,2493.6153846153848,-14.911242603550296,5.538461538461538,1.6776923076923078
Ta6 Mn2 N12,0.2990687672692703,3.0,0.8979457248567798,68.18236902999999,3.4000000000000004,11.2,1176.7900000000002,-153.6,5.2,2.429
Ta6 Mn6 Ge6,0.6630522218950158,3.0,1.0986122886681098,102.83890876666665,4.666666666666666,8.666666666666666,2006.7999999999997,-32.44444444444444,5.333333333333333,1.6866666666666665
Ta6 Mn6 Si6,0.19198686938848827,3.0,1.0986122886681098,87.99030876666666,4.333333333333333,8.666666666666666,2165.333333333333,-46.666666666666664,5.333333333333333,1.65
Ta7 Fe6,0.4492327962642643,2.0,0.6901856760188042,123.2081826153846,5.076923076923077,6.384615384615385,2607.3846153846152,-14.911242603550296,5.461538461538462,1.6523076923076923
Ta8 Fe4,0.4783377269222671,2.0,0.6365141682948129,139.246988,5.333333333333333,6.0,2796.9999999999995,-13.333333333333332,5.333333333333333,1.6099999999999999
Tc1 Ag3,0.41164269582571467,2.0,0.5623351446188083,105.40116499999999,5.0,10.0,1533.6975,18.0,4.75,1.9224999999999999
Tc3 Ge1,0.2676366645847841,2.0,0.5623351446188083,91.6577,4.75,8.75,2125.35,-13.875,6.25,1.9274999999999998
Tc4 B16,0.3328684385376013,2.0,0.5004024235381879,28.248,2.6,11.8,2365.2,-16.000000000000004,3.8000000000000003,2.012
Ti1 Ag1,0.30428676374788727,2.0,0.6931471805599453,77.86766,4.5,7.5,1587.9650000000001,-2.0,4.0,1.7349999999999999
Ti1 Ag1 Hg2,0.25033045256151293,3.0,1.0397207708399179,139.22998,5.25,9.75,911.143,-6.0,4.0,1.8675
Ti1 Al1 Co2,0.2377247676767928,3.0,1.0397207708399179,48.1787568425,3.75,8.75,1602.6175,-31.0,4.25,1.7275
Ti1 Al1 Fe2,0.23366444994721478,3.0,1.0397207708399179,46.6347596425,3.75,8.25,1624.1175,-21.5,4.75,1.7025000000000001
Ti1 Au1,0.3082901750323743,2.0,0.6931471805599453,122.41683474999999,5.0,7.5,1639.165,-47.0,4.5,2.04
Ti1 Be4 Nb1,0.19423099883511047,3.0,0.8675632284814613,29.470367433333333,2.833333333333333,2.833333333333334,1821.8333333333333,-24.22222222222222,2.833333333333333,1.5699999999999998
Ti1 Co1,0.37863224675552465,2.0,0.6931471805599453,53.4001472,4.0,6.5,1854.5,-28.0,4.5,1.71
Ti1 Co1 Sn1,0.21492701380707482,3.0,1.0986122886681098,75.17033146666667,4.333333333333333,9.0,1404.6933333333332,-21.777777777777775,4.333333333333333,1.7933333333333334
Ti1 Co2 Ge1,0.47667312971269743,3.0,1.0397207708399179,59.5910722,4.0,9.0,1672.1,-37.625,4.5,1.8275
Ti1 Co2 Si1,0.49917691542059095,3.0,1.0397207708399179,48.454622199999996,3.75,9.0,1791.0,-49.5,4.5,1.8
Ti1 Co2 Sn1,0.3748963314534992,3.0,1.0397207708399179,71.1110472,4.25,9.0,1495.52,-19.25,4.5,1.815
Ti1 Co3,0.6983931347952474,2.0,0.5623351446188083,56.1666708,4.0,7.75,1811.25,-21.0,4.75,1.795
Ti1 Cr1 Ag1,0.6450743270634872,3.0,1.0986122886681098,69.24382666666666,4.333333333333333,6.999999999999999,1785.31,8.0,4.666666666666666,1.71
Ti1 Cr1 N2,0.6397915567805528,3.0,1.0397207708399179,31.969314999999998,3.0,10.0,1061.825,-150.25,5.0,2.3200000000000003
Ti1 Cu1,0.3668493070081038,2.0,0.6931471805599453,55.7067,4.0,7.5,1649.385,-9.0,4.0,1.72
Ti1 Fe1,0.25949096848505665,2.0,0.6931471805599453,51.85615,4.0,6.0,1876.0,-17.0,5.0,1.685
Ti1 Fe1 Co1 Ge1,0.237915726837442,4.0,1.3862943611198906,58.819073599999996,4.0,8.75,1682.85,-33.625,4.75,1.815
Ti1 Fe1 Co1 Sb1,0.4158737968713113,4.0,1.3862943611198906,71.1013986,4.25,9.0,1605.945,-16.75,5.0,1.825
Ti1 Fe1 Co1 Si1,0.2492212726747527,4.0,1.3862943611198906,47.6826236,3.75,8.75,1801.75,-46.25,4.75,1.7874999999999999
Ti1 Fe1 Sb1,0.21354125203093788,3.0,1.0986122886681098,75.15746666666665,4.333333333333333,9.0,1551.9266666666667,-17.77777777777778,5.0,1.8066666666666666
Ti1 Fe1 Sn1,0.28547965665419356,3.0,1.0986122886681098,74.14099999999999,4.333333333333333,8.666666666666666,1419.0266666666666,-12.0,4.666666666666666,1.7766666666666668
Ti1 Fe2 Sb1,0.21151038288080803,3.0,1.0397207708399179,70.32939999999999,4.25,8.75,1616.695,-11.75,5.25,1.8125
Ti1 Fe3 N1,0.3686917294364081,3.0,0.9502705392332346,45.88194,3.6,8.6,1487.43,-80.32000000000001,5.3999999999999995,2.0140000000000002
Ti1 Fe4,0.978497419117323,2.0,0.5004024235381879,54.24958,4.0,7.2,1837.0000000000002,-10.880000000000003,5.6000000000000005,1.7720000000000002
Ti1 Fe6 Ge6,0.7233064963508894,3.0,0.9110175397125628,62.9787,4.0,10.461538461538462,1544.2615384615387,-22.93491124260355,4.923076923076923,1.8907692307692308
Ti1 Ga1 Co2,0.24319429140605187,3.0,1.0397207708399179,58.8641472,4.0,8.75,1444.97865,-25.25,4.25,1.7775
Ti1 Ga1 Fe2,0.2265432553916326,3.0,1.0397207708399179,57.32015,4.0,8.25,1466.47865,-15.25,4.75,1.7525000000000002
Ti1 In1 Co2,0.2480754055988762,3.0,1.0397207708399179,70.1378972,4.25,8.75,1476.687125,-11.75,4.25,1.77
Ti1 In1 Fe2,0.20042200412787778,3.0,1.0397207708399179,68.5939,4.25,8.25,1498.187125,-0.25,4.75,1.745
Ti1 Mn1 Co2,1.1666099845398705,3.0,1.0397207708399179,55.167883274999994,4.0,7.25,1749.0,-18.5,5.25,1.7125
Ti1 Mn1 Ni4 Sn2,0.3741425883271627,4.0,1.2130075659799042,71.8750380375,4.25,9.875,1422.77,-16.75,4.375,1.8312499999999998
Ti1 Mn1 Rh2,0.999081700631623,3.0,1.0397207708399179,77.154037075,4.5,7.25,1983.5,-36.0,5.75,1.9124999999999999
Ti1 Mn2 Al1,0.9065380425611372,3.0,1.0397207708399179,46.1811817925,3.75,7.75,1478.1175,-21.0,5.25,1.5625
Ti1 Mn2 Ga1,0.6150129758525638,3.0,1.0397207708399179,56.866572149999996,4.0,7.75,1320.47865,-16.25,5.25,1.6125
Ti1 Mn2 Ge1,0.45797599445015125,3.0,1.0397207708399179,57.59349715,4.0,8.0,1547.6,-32.625,5.5,1.6624999999999999
Ti1 Mn2 Mo1,0.21093871841087408,3.0,1.0397207708399179,63.42354715,4.25,6.0,1968.75,-2.5,6.0,1.7
Ti1 Mn2 Si1,0.4892979492107625,3.0,1.0397207708399179,46.45704715,3.75,8.0,1666.5,-43.0,5.5,1.635
Ti1 Mn2 V1,0.18946830286423932,3.0,1.0397207708399179,52.17117465,4.0,5.75,1790.5,-5.0,5.75,1.5675000000000001
Ti1 Sn1 Rh1,0.20371120067477821,3.0,1.0986122886681098,89.82776733333333,4.666666666666666,9.0,1561.0266666666666,-38.22222222222222,4.666666666666666,1.9266666666666665
Ti10 Co2 Sb4,0.24141148586400743,3.0,0.9002560512685368,67.7236118,4.25,7.375,1660.07,-29.125,4.375,1.71
Ti10 Ga6,0.2407947679940301,2.0,0.661563238157982,56.063100000000006,4.0,7.375,1326.717975,-21.5625,3.625,1.6412499999999999
Ti10 Ga8,0.203771494544925,2.0,0.6869615765973234,57.58087777777778,4.0,8.0,1212.9620444444445,-22.716049382716047,3.5555555555555554,1.66
Ti12 Fe12 Ge24,0.4663596815607274,3.0,1.0397207708399179,62.243475,4.0,10.0,1543.7,-37.75,4.5,1.8475
Ti12 Fe12 Si24,0.276707772834827,3.0,1.0397207708399179,39.970575,3.5,10.0,1781.5,-54.75,4.5,1.7925
Ti12 Mn12 Ge24,0.2983082098438555,3.0,1.0397207708399179,62.016686074999996,4.0,9.75,1470.7,-43.5,4.75,1.7774999999999999
Ti12 Mn12 Si24,0.34681975044937735,3.0,1.0397207708399179,39.743786075,3.5,9.75,1708.5,-57.5,4.75,1.7225
Ti16 Cu8,0.2265388723026349,2.0,0.6365141682948129,53.0935,4.0,6.333333333333333,1746.59,-8.0,4.0,1.66
Ti16 Ni8 H8,0.38594555859318425,3.0,1.0397207708399179,38.85891,3.25,4.75,1405.9975,-50.25,3.25,1.7975
Ti2 Al1,0.5557726303847633,2.0,0.6365141682948129,40.90524619,3.6666666666666665,7.0,1605.1566666666668,-26.666666666666664,3.6666666666666665,1.5633333333333332
Ti2 Al1 Co1,0.4037112953684688,3.0,1.0397207708399179,45.4122332425,3.75,7.5,1645.8675,-33.75,4.0,1.6425
Ti2 Al1 Cu1,0.6981643946544214,3.0,1.0397207708399179,46.565509642500004,3.75,8.0,1543.31,-19.75,3.75,1.6475
Ti2 Al1 Fe1,0.20047640629198146,3.0,1.0397207708399179,44.640234642500005,3.75,7.25,1656.6175,-26.25,4.25,1.6300000000000001
Ti2 Al1 Ni1,0.4207278824037848,3.0,1.0397207708399179,45.3522946425,3.75,7.75,1635.8675,-38.0,3.75,1.65
Ti2 Al1 V1,0.351429168014928,3.0,1.0397207708399179,43.4143121425,3.75,6.5,1749.6175,-20.0,4.0,1.58
Ti2 Al1 Zn1,0.5749903761623103,3.0,1.0397207708399179,47.0244346425,3.75,8.25,1377.0375,-22.25,3.25,1.585
Ti2 Al2 Au2,0.1830371991583807,3.0,1.0986122886681098,90.60506935666666,4.333333333333333,9.333333333333332,1403.9333333333334,-44.0,3.9999999999999996,1.8966666666666667
Ti2 Au2,0.39936717134434224,2.0,0.6931471805599453,122.41683474999999,5.0,7.5,1639.165,-47.0,4.5,2.04
Ti2 Be3 Ga1,0.2782828240372974,3.0,1.0114042647073518,32.08230824166667,3.0,4.5,1477.4857666666667,-23.444444444444443,2.833333333333333,1.6
Ti2 Be4,0.43173258354755456,2.0,0.6365141682948129,21.963822099999998,2.6666666666666665,2.6666666666666665,1687.0,-26.666666666666664,2.6666666666666665,1.56
Ti2 Co1 Ge1,0.6145012035376004,3.0,1.0397207708399179,56.8245486,4.0,7.75,1715.35,-45.125,4.25,1.7425
Ti2 Co1 Os1,0.1963083723147711,3.0,1.0397207708399179,86.2250986,4.5,6.25,2239.0,-34.5,5.25,1.79
Ti2 Co1 Si1,0.638260441237988,3.0,1.0397207708399179,45.688098600000004,3.75,7.75,1834.25,-56.5,4.25,1.7149999999999999
Ti2 Co21 B6,0.7798521944542257,3.0,0.7441295414112981,48.21349249655172,3.586206896551724,9.482758620689655,1900.1379310344828,-23.28656361474435,4.517241379310345,1.889655172413793