chemical formula,saturation magnetization,compoundradix,stoicentw,Zw,periodw,groupw,meltingTw,miedemaH,valencew,electronegw
Fe1 Pt3,0.9611906682106823,2.0,0.5623351446188083,160.274975,5.5,9.5,1983.8000000000002,-9.75,6.0,2.1675
Fe1 Rh1,1.6869037290022555,2.0,0.6931471805599453,79.375351,4.5,8.5,2024.0,-5.0,6.0,2.0549999999999997
Fe1 Sb1 Pt1,0.5326172179095874,3.0,1.0986122886681098,124.23006666666666,5.0,11.0,1585.3933333333334,-8.88888888888889,5.666666666666666,2.0533333333333332
Fe1 Sb1 Rh2,0.6443948434989111,3.0,1.0397207708399179,95.85407599999999,4.75,10.25,1797.195,-4.0,5.75,2.11
Fe1 Si1 Ru2,0.9392562219893272,3.0,1.0397207708399179,71.51855,4.25,9.5,2178.0,-30.25,6.5,2.0325
Fe1 Si1 Tc2,0.599082482143323,3.0,1.0397207708399179,69.98255,4.25,9.0,2089.5,-29.25,6.0,1.8824999999999998
Fe1 Sn1 Rh2,0.7362415864563806,3.0,1.0397207708399179,95.091726,4.75,10.0,1697.52,-6.25,5.5,2.0875
Fe1 Sn1 Ru2,0.8109557872404939,3.0,1.0397207708399179,94.17497499999999,4.75,9.5,1882.52,2.25,6.5,2.0475000000000003
Fe1 Tc2 Ge1,0.5614454715811483,3.0,1.0397207708399179,81.119,4.5,9.0,1970.6,-14.625,6.0,1.91
Fe10 Co1 N8,0.6776350941609931,3.0,0.8569977547780645,38.39164181052631,3.1578947368421053,11.0,1072.8,-83.87811634349029,5.526315789473684,2.3421052631578947
Fe10 Cu1 N8,0.36578449456387985,3.0,0.8569977547780645,38.63443684210526,3.1578947368421053,11.105263157894736,1051.2089473684211,-83.12465373961217,5.473684210526315,2.343157894736842
Fe10 Ni1 N8,0.3991024042164518,3.0,0.8569977547780645,38.379023157894736,3.1578947368421053,11.052631578947368,1070.6947368421054,-83.45706371191135,5.473684210526315,2.3436842105263156
Fe10 Si2 B4,1.2660346840953427,3.0,0.9002560512685369,41.116375,3.375,10.0,1930.0,-28.9375,5.0,1.89125
Fe10 Si4 B2,1.1586188049719595,3.0,0.9002560512685369,43.27575,3.5,10.125,1847.25,-31.75,5.125,1.8737499999999998
Fe10 Si6,0.9525741223007248,2.0,0.661563238157982,45.435125,3.625,10.25,1764.5,-32.8125,5.25,1.85625
Fe100,2.0557479956462696,1.0,-0.0,55.8452,4.0,8.0,1811.0,0.0,6.0,1.83
Fe11 Si5,1.0878033492649481,2.0,0.6210863745552452,47.1701375,3.6875,9.875,1772.25,-30.078125,5.375,1.8518750000000002
Fe12 B4,1.7864615242425268,2.0,0.5623351446188083,44.5864,3.5,9.25,1945.5,-19.5,5.25,1.8825
Fe12 Ge10,0.778514637100741,2.0,0.6890092384766585,63.47501818181817,4.0,10.727272727272727,1538.4545454545455,-15.37190082644628,5.090909090909091,1.9118181818181816
Fe12 Mo12 N4,0.27749981717822647,3.0,1.0042424730540764,67.05651428571429,4.142857142857142,8.142857142857142,2026.3071428571427,-50.938775510204074,5.857142857142857,2.144285714285714
Fe12 N4,1.7047912264981782,2.0,0.5623351446188083,45.38565,3.5,9.75,1374.0375,-65.25,5.75,2.1325000000000003
Fe12 N6,2.36309811626072,2.0,0.6365141682948129,41.899133333333324,3.333333333333333,10.333333333333332,1228.3833333333332,-77.33333333333333,5.666666666666667,2.2333333333333334
Fe12 Si2 B2,1.680153154863696,3.0,0.7356219397587946,46.745775,3.625,9.375,1862.75,-23.75,5.375,1.8650000000000002
Fe12 Si4 N16,0.2845496121347058,3.0,0.9743147528693494,31.456075,2.875,12.25,921.575,-92.0625,5.25,2.44375
Fe12 Si4 Ni4,1.403133501996847,3.0,0.9502705392332346,50.862808,3.8,9.600000000000001,1769.6,-24.160000000000004,5.2,1.86
Fe12 W12 N4,0.23052043165671735,3.0,1.0042424730540764,104.72365714285714,4.571428571428571,8.142857142857142,2368.735714285714,-46.53061224489795,5.857142857142857,2.2299999999999995
Fe12 W2 N8,0.34337406352385497,3.0,0.9164648855394713,52.26729090909091,3.4545454545454546,10.363636363636363,1346.6909090909091,-82.64462809917354,5.636363636363637,2.318181818181818
Fe13 Co3,2.5221738006670895,2.0,0.48257756517701206,56.42419895,4.0,8.1875,1802.9375,-0.609375,5.8125,1.839375
Fe13 Ge3,2.029296281964407,2.0,0.48257756517701206,58.9925,4.0,9.125,1698.575,-9.4453125,5.625,1.86375
Fe14 Ge8,1.3956247216378859,2.0,0.6554817739013928,61.949054545454544,4.0,10.181818181818182,1592.9636363636364,-14.347107438016529,5.2727272727272725,1.8954545454545455
Fe15 Co1,2.61133466232155,2.0,0.2337916587064593,56.038199649999996,4.0,8.0625,1808.3125,-0.234375,5.9375,1.8331250000000001
Fe16 Ge16 N32,0.6226632993359944,3.0,1.0397207708399179,39.1225,3.0,13.0,787.1750000000001,-86.625,5.0,2.48
Fe16 Mo8 N4,0.8147467624030537,3.0,0.9556998911125344,61.32711428571427,3.9999999999999996,8.428571428571429,1871.3071428571427,-48.48979591836734,5.857142857142857,2.097142857142857
Fe16 Si16 N32,1.0885315898873276,3.0,1.0397207708399179,27.98605,2.75,13.0,906.075,-92.75,5.0,2.4525
Fe16 W8 N4,0.4318717000652942,3.0,0.9556998911125343,86.43854285714285,4.285714285714286,8.42857142857143,2099.5928571428567,-45.22448979591836,5.857142857142857,2.154285714285714
Fe2,2.6269061902485777,1.0,-0.0,55.8452,4.0,8.0,1811.0,0.0,6.0,1.83
Fe2 Ag6,0.5264608800421655,2.0,0.5623351446188083,94.86246499999999,4.75,10.25,1378.9475,21.0,4.5,1.905
Fe2 B1,1.5673563465230687,2.0,0.6365141682948129,40.83346666666666,3.333333333333333,9.666666666666666,1990.3333333333333,-23.11111111111111,5.0,1.9
Fe2 B2,1.386699226923092,2.0,0.6931471805599453,33.3276,3.0,10.5,2080.0,-26.0,4.5,1.935
Fe2 B4 Mo1,0.28819849468423925,3.0,0.9556998911125343,35.840199999999996,3.0,10.571428571428571,2273.4285714285716,-28.408163265306122,4.285714285714286,1.997142857142857
Fe2 B4 Mo4,0.4441875329993944,3.0,1.054920167986144,53.87344,3.5999999999999996,9.200000000000001,2460.2000000000003,-30.720000000000006,4.800000000000001,2.0460000000000003
Fe2 B4 W4,0.36771274535666104,3.0,1.054920167986144,89.02944000000001,4.0,9.200000000000001,2779.8,-28.160000000000004,4.800000000000001,2.1260000000000003
Fe2 B6 Rh12,0.416441453862347,3.0,0.8979457248567798,70.5708212,4.0,10.1,2228.0,-22.32,5.1,2.163
Fe2 Co1 Ge1,1.270107405873552,3.0,1.0397207708399179,60.81359859999999,4.0,9.75,1650.35,-13.625,5.25,1.8875
Fe2 Co1 N2,0.3347271464548615,3.0,1.054920167986144,39.727518880000005,3.2,11.0,1103.26,-80.00000000000001,5.4,2.3240000000000003
Fe2 Co1 Si1,1.2633706607828454,3.0,1.0397207708399179,49.677148599999995,3.75,9.75,1769.25,-27.5,5.25,1.8599999999999999
Fe2 Co2 B2,1.2855151372636107,3.0,1.0986122886681098,41.86279813333333,3.333333333333333,10.0,1976.0,-22.666666666666664,4.666666666666666,1.9166666666666665
Fe2 Co2 B4,0.3832784280773139,3.0,1.0397207708399179,34.0995986,3.0,10.75,2069.25,-25.25,4.25,1.9475
Fe2 Co2 Ge2,0.766727583006764,3.0,1.0986122886681098,62.46973146666666,4.0,10.333333333333332,1596.7999999999997,-16.888888888888886,5.0,1.9066666666666667
Fe2 Co2 Si4,0.266110788237885,3.0,1.0397207708399179,42.7370986,3.5,11.25,1738.25,-36.75,4.75,1.8775
Fe2 Co2 Sn2,0.8743196248983488,3.0,1.0986122886681098,77.82969813333334,4.333333333333333,10.333333333333332,1361.36,4.444444444444444,5.0,1.8900000000000001
Fe2 Cu1 Ni1 Pt4,0.8312906923177388,4.0,1.2130075659799042,126.7837175,5.0,9.625,1859.17125,-9.125,5.5,2.07375
Fe2 Cu6,0.6297334211736196,2.0,0.5623351446188083,61.621025,4.0,10.25,1471.0774999999999,9.75,4.5,1.8824999999999998
Fe2 Ge1,1.5078985042777537,2.0,0.6365141682948129,61.44039999999999,4.0,10.0,1611.1333333333332,-13.777777777777777,5.333333333333333,1.89
Fe2 Ge14 N20,0.18195292666140675,3.0,0.8544149816001841,39.129488888888886,2.888888888888889,14.222222222222223,606.7944444444445,-79.91975308641975,4.666666666666667,2.5722222222222224
Fe2 Ge4,0.44876747385440835,2.0,0.6365141682948129,67.03559999999999,4.0,11.999999999999998,1411.2666666666667,-13.777777777777777,4.666666666666666,1.95
Fe2 Ge6,0.4166425099189316,2.0,0.5623351446188083,68.4344,4.0,12.5,1361.3000000000002,-11.625,4.5,1.9649999999999999
Fe2 H6,0.3100734515146645,2.0,0.5623351446188083,14.7173,1.75,2.75,463.2425,-17.25,2.25,2.1075
Fe2 Hg6,0.4050952112592924,2.0,0.5623351446188083,164.40552499999998,5.5,11.0,628.4907499999999,16.5,4.5,1.9575
Fe2 N1,1.1585953074311268,2.0,0.6365141682948129,41.899133333333324,3.333333333333333,10.333333333333332,1228.3833333333332,-77.33333333333333,5.666666666666667,2.2333333333333334
Fe2 N2,0.9532658982681128,2.0,0.6931471805599453,34.9261,3.0,11.5,937.075,-87.0,5.5,2.435
Fe2 Ni1,1.922831757610574,2.0,0.6365141682948129,56.79461333333333,4.0,8.666666666666666,1783.3333333333333,-1.7777777777777777,5.333333333333333,1.8566666666666667
Fe2 Ni1 N2,0.5738240537776338,3.0,1.054920167986144,39.679568,3.2,11.200000000000001,1095.26,-78.40000000000002,5.2,2.33
Fe2 Ni2,1.8501508211173796,2.0,0.6931471805599453,57.26932,4.0,9.0,1769.5,-2.0,5.0,1.87
Fe2 Ni2 B2,0.8101773235970966,3.0,1.0986122886681098,41.78288,3.333333333333333,10.333333333333334,1962.6666666666665,-23.11111111111111,4.333333333333333,1.9266666666666665
Fe2 Ni2 Ge2,0.6092007305164333,3.0,1.0986122886681098,62.38981333333333,4.0,10.666666666666666,1583.4666666666667,-18.22222222222222,4.666666666666666,1.9166666666666667
Fe2 Ni2 Sn2,0.6306422996619395,3.0,1.0986122886681098,77.74978,4.333333333333333,10.666666666666666,1348.0266666666666,2.222222222222222,4.666666666666666,1.9000000000000001
Fe2 Ni4,1.3101240807602546,2.0,0.6365141682948129,57.74402666666666,4.0,9.333333333333332,1755.6666666666665,-1.7777777777777777,4.666666666666666,1.8833333333333333
Fe2 Ni6,1.3686204066018242,2.0,0.5623351446188083,57.98138,4.0,9.5,1748.75,-1.5,4.5,1.89
Fe2 Pb1 N2,0.41191197505295957,3.0,1.054920167986144,69.38288,3.6000000000000005,12.0,869.7820000000002,-72.64000000000001,5.2,2.322
Fe2 Pd1,1.6768070177836025,2.0,0.6365141682948129,72.7038,4.333333333333333,8.666666666666666,1816.6833333333332,-3.5555555555555554,5.333333333333333,1.9533333333333334
Fe2 Pd2,1.4979980292328148,2.0,0.6931471805599453,81.1331,4.5,9.0,1819.525,-4.0,5.0,2.015
Fe2 Pd3 Au3,0.7445976978653999,3.0,1.0821955300387671,127.7316385625,5.125,9.875,1639.7675,1.5,4.875,2.2350000000000003
Fe2 Pt1,1.7068158033924938,2.0,0.6365141682948129,102.25843333333333,4.666666666666666,8.666666666666666,1887.8,-11.555555555555555,6.0,1.9799999999999998
Fe2 Pt1 Rh1,1.3114025570807952,3.0,1.0397207708399179,102.42020049999999,4.75,8.75,1975.1,-9.5,6.0,2.0549999999999997
Fe2 Re2 B2,0.67263613081358,3.0,1.0986122886681098,84.28743333333333,3.9999999999999996,9.333333333333334,2539.6666666666665,-22.666666666666664,5.333333333333333,1.9233333333333331
Fe2 Re6,0.34823704412814016,2.0,0.5623351446188083,153.616625,5.5,7.25,3047.0,0.0,6.75,1.8824999999999998
Fe2 Rh6,0.7509152886563779,2.0,0.5623351446188083,91.14042649999999,4.75,8.75,2130.5,-3.75,6.0,2.1675
Fe2 Sb2,0.40919567912130017,2.0,0.6931471805599453,88.80265,4.5,11.5,1357.3899999999999,10.0,5.5,1.94
Fe2 Sb4,0.3201880922594041,2.0,0.6365141682948129,99.78846666666665,4.666666666666666,12.666666666666666,1206.1866666666665,8.88888888888889,5.333333333333333,1.9766666666666666
Fe2 Si1,0.8378325811910415,2.0,0.6365141682948129,46.5918,3.6666666666666665,10.0,1769.6666666666665,-31.11111111111111,5.333333333333333,1.8533333333333333
Fe2 Si1 Ni1,1.2528465485075713,3.0,1.0397207708399179,49.61721,3.75,10.0,1759.25,-28.5,5.0,1.8675
Fe2 Si14 N20,0.21426215095011095,3.0,0.8544149816001841,21.806122222222225,2.5,14.222222222222223,791.75,-83.76543209876544,4.666666666666667,2.5294444444444446
Fe2 Si4 N6,0.5770673056225857,3.0,1.0114042647073518,25.6727,2.6666666666666665,13.5,895.7416666666666,-90.77777777777777,4.833333333333333,2.4583333333333335
Fe2 Sn2,0.6022600604911348,2.0,0.6931471805599453,87.27795,4.5,11.0,1158.04,11.0,5.0,1.895
Fe2 Sn4,0.3091281453146985,2.0,0.6365141682948129,97.75553333333333,4.666666666666666,11.999999999999998,940.3866666666665,9.777777777777777,4.666666666666666,1.9166666666666667
Fe2 Sn6,0.34141637459544955,2.0,0.5623351446188083,102.994325,4.75,12.5,831.56,8.25,4.5,1.9275
Fe2 W2 N4,1.0612085210262294,3.0,1.0397207708399179,66.92505,3.5,11.0,1408.075,-95.0,5.5,2.5675
Fe20 Si12,0.9265502134883887,2.0,0.661563238157982,45.435125,3.625,10.25,1764.5,-32.8125,5.25,1.85625
Fe22 B6 W1,1.6471900786995406,3.0,0.6516582165640162,50.941220689655175,3.655172413793103,8.965517241379311,1987.2758620689656,-17.208085612366226,5.379310344827585,1.8917241379310343
Fe23 B6,2.2207155236135305,2.0,0.5098156995816887,46.5275724137931,3.586206896551724,9.03448275862069,1922.3103448275863,-17.065398335315102,5.379310344827586,1.873448275862069
Fe24 N10,1.4747070121885018,2.0,0.605797499372304,43.539847058823526,3.4117647058823533,10.058823529411764,1296.9264705882354,-72.2491349480969,5.705882352941177,2.1858823529411766
Fe24 N8,1.7246214807020812,2.0,0.5623351446188083,45.38565,3.5,9.75,1374.0375,-65.25,5.75,2.1325000000000003
Fe24 N9,1.5966730038043064,2.0,0.5859526183035508,44.43478181818182,3.4545454545454546,9.909090909090908,1334.3136363636365,-69.02479338842974,5.727272727272727,2.16
Fe25 Mo4,1.4604881514431378,2.0,0.40118986218700575,61.37703448275862,4.137931034482758,7.724137931034482,1960.655172413793,-0.9512485136741973,6.0,1.8755172413793104
Fe26 Mo18,0.293117753638477,2.0,0.6765259604934998,72.25211818181819,4.409090909090909,7.181818181818182,2254.8636363636365,-1.9338842975206614,6.0,1.9650000000000003
Fe28,2.2830297507223523,1.0,-0.0,55.8452,4.0,8.0,1811.0,0.0,6.0,1.83
Fe3 Ag1,1.6814688670461264,2.0,0.5623351446188083,68.850955,4.25,8.75,1666.9825,21.0,5.5,1.855
Fe3 Au1,1.71097509380057,2.0,0.5623351446188083,91.125542375,4.5,8.75,1692.5825,6.0,5.75,2.0075000000000003
Fe3 Co1,2.4889241315497155,2.0,0.5623351446188083,56.617198599999995,4.0,8.25,1800.25,-0.75,5.75,1.8425
Fe3 Co1 N1,1.7040890582046335,3.0,0.9502705392332346,48.09515888,3.6,9.6,1452.83,-54.24,5.6,2.082
Fe3 Co3 Ge2,1.2371240563203498,3.0,1.0821955300387671,61.19959789999999,4.0,9.875,1644.975,-14.4375,5.125,1.89375
Fe3 Co3 Si2,1.4791161538197157,3.0,1.0821955300387671,50.0631479,3.75,9.875,1763.875,-27.9375,5.125,1.86625
Fe3 Co3 Sn6,0.26739547057425417,3.0,1.0397207708399179,88.0499486,4.5,11.25,1147.29,5.25,4.75,1.9075
Fe3 Cu1,1.8527650452667341,2.0,0.5623351446188083,57.770475,4.0,8.75,1697.6925,9.75,5.5,1.8475000000000001
Fe3 Ge1,1.8141676282327368,2.0,0.5623351446188083,60.041599999999995,4.0,9.5,1661.1,-11.625,5.5,1.875
Fe3 Ge2,0.9140474880751224,2.0,0.6730116670092564,62.559439999999995,4.0,10.4,1571.1599999999999,-14.879999999999999,5.2,1.902
Fe3 Ge3,0.9200221036670551,2.0,0.6931471805599453,64.238,4.0,11.0,1511.2,-15.5,5.0,1.92
Fe3 Ge8 N8,0.34949423945028907,3.0,1.0198652142779299,45.296736842105254,3.1578947368421053,13.473684210526315,822.5999999999999,-82.92520775623268,4.7368421052631575,2.415263157894737
Fe3 H1,1.416679761944269,2.0,0.5623351446188083,42.1359,3.25,6.25,1361.7475,-17.25,4.75,1.9225
Fe3 Mo5 N8,0.5534165869592099,3.0,1.0239287996389363,47.459162500000005,3.3125,10.875,1276.1375,-104.96875,5.5,2.538125
Fe3 Ni1,2.0642371428382607,2.0,0.5623351446188083,56.55726,4.0,8.5,1790.25,-1.5,5.5,1.85
Fe3 Ni1 N1,1.6792730664874331,3.0,0.9502705392332346,48.047208,3.6,9.8,1444.83,-53.760000000000005,5.4,2.088
Fe3 Ni20 B6,0.3632778211163473,3.0,0.8169151695570781,48.491875862068966,3.586206896551724,10.413793103448276,1865.0689655172416,-16.494649227110582,4.0,1.9286206896551723
Fe3 Ni3 Ge2,0.847786071451343,3.0,1.0821955300387671,61.10969,4.0,10.25,1629.975,-15.75,4.75,1.905
Fe3 Ni3 Pt2,1.3058146873264358,3.0,1.0821955300387673,91.72321500000001,4.5,9.25,1837.475,-7.875,5.25,1.9724999999999997
Fe3 Pd1,1.862420528828264,2.0,0.5623351446188083,68.48915,4.25,8.5,1815.2625,-3.0,5.5,1.9225
Fe3 Pd1 N1,1.8001806872032355,3.0,0.9502705392332346,57.59272,3.8,9.8,1464.8400000000001,-53.6,5.4,2.146
Fe3 Pt1,1.831008507357505,2.0,0.5623351446188083,90.655125,4.5,8.5,1868.6,-9.75,6.0,1.9425
Fe3 Pt1 N1,1.5571217935068957,3.0,0.9502705392332346,75.3255,4.0,9.8,1507.51,-56.32,5.8,2.162
Fe3 Rh1,2.218062080082617,2.0,0.5623351446188083,67.6102755,4.25,8.25,1917.5,-3.75,6.0,1.9425
Fe3 Rh1 N1,1.9683116400216443,3.0,0.9502705392332346,56.8896204,3.8,9.6,1546.63,-54.24,5.8,2.162
Fe3 Si1,1.5384189470595735,2.0,0.5623351446188083,48.90515,3.75,9.5,1780.0,-26.25,5.5,1.8475000000000001
Fe3 Si2 Ni3,0.8433874146211885,3.0,1.0821955300387671,49.973240000000004,3.75,10.25,1748.875,-29.25,4.75,1.8775
Fe3 Sn1,1.4625226482666076,2.0,0.5623351446188083,71.561575,4.25,9.5,1484.52,8.25,5.5,1.8625
Fe3 Sn1 Sb1,0.8073782609369896,3.0,0.9502705392332346,81.60128,4.4,10.600000000000001,1368.3719999999998,9.919999999999998,5.4,1.9000000000000001
Fe3 Sn3,0.7604353509670103,2.0,0.6931471805599453,87.27795,4.5,11.0,1158.04,11.0,5.0,1.895
Fe3 W1,0.9489503556319698,2.0,0.5623351446188083,87.84415,4.5,7.5,2282.0,0.0,6.0,1.9625
Fe3 W4 N8,0.561756610765078,3.0,1.009613758174038,67.66370666666667,3.466666666666667,11.2,1381.2133333333334,-95.71555555555557,5.466666666666667,2.6166666666666667
Fe3 W5 N8,0.7214938401197761,3.0,1.0239287996389363,74.92478750000001,3.625,10.875,1525.825,-97.0,5.5,2.600625
Fe4,2.464534194496496,1.0,-0.0,55.8452,4.0,8.0,1811.0,0.0,6.0,1.83
Fe4 B2,1.9765526048507585,2.0,0.6365141682948129,40.83346666666666,3.333333333333333,9.666666666666666,1990.3333333333333,-23.11111111111111,5.0,1.9
Fe4 B4,1.191018309997478,2.0,0.6931471805599453,33.3276,3.0,10.5,2080.0,-26.0,4.5,1.935
Fe4 B4 W4,0.37687521566474325,3.0,1.0986122886681098,83.49873333333333,4.0,9.0,2618.333333333333,-25.333333333333332,5.0,2.0766666666666667
Fe4 Co2 N4,1.5419659755244957,3.0,1.054920167986144,39.727518880000005,3.2,11.0,1103.26,-80.00000000000001,5.4,2.3240000000000003
Fe4 Co4 Si4,0.848164609864449,3.0,1.0986122886681098,47.62113146666666,3.666666666666666,10.333333333333332,1755.333333333333,-32.888888888888886,5.0,1.87
Fe4 Co8 B4,1.4122560107933326,3.0,1.0397207708399179,46.1303972,3.5,9.75,1924.0,-19.0,4.75,1.9075
Fe4 Ge2,1.2300650268095208,2.0,0.6365141682948129,61.44039999999999,4.0,10.0,1611.1333333333332,-13.777777777777777,5.333333333333333,1.89
Fe4 Ge4,0.7500109017562809,2.0,0.6931471805599453,64.238,4.0,11.0,1511.2,-15.5,5.0,1.92
Fe4 Ge4 N8,0.9462350374752823,3.0,1.0397207708399179,39.1225,3.0,13.0,787.1750000000001,-86.625,5.0,2.48
Fe4 Mo1,1.6228371887125668,2.0,0.5004024235381879,63.86636,4.2,7.6000000000000005,2028.0000000000002,-1.2800000000000002,6.0,1.8960000000000001
Fe4 Mo12 Pd4 N4,0.31422035296610684,4.0,1.2424533248940002,77.35436666666668,4.333333333333333,8.500000000000002,2065.0333333333333,-60.999999999999986,5.499999999999999,2.2583333333333333
Fe4 Mo12 Pt4 N4,0.31026581947540277,4.0,1.2424533248940002,92.13168333333333,4.499999999999999,8.500000000000002,2100.5916666666667,-65.22222222222221,5.833333333333333,2.2716666666666665
Fe4 N1,1.6332349602247245,2.0,0.5004024235381879,47.477560000000004,3.6,9.4,1461.4300000000003,-55.680000000000014,5.800000000000001,2.072
Fe4 Ni2,1.6558584931826736,2.0,0.6365141682948129,56.79461333333333,4.0,8.666666666666666,1783.3333333333333,-1.7777777777777777,5.333333333333333,1.8566666666666667
Fe4 Ni2 N4,0.4692355373152528,3.0,1.054920167986144,39.679568,3.2,11.200000000000001,1095.26,-78.40000000000002,5.2,2.33
Fe4 Ni4 Mo12 N4,0.33061485147807207,4.0,1.2424533248940002,69.39977333333334,4.166666666666666,8.500000000000002,2048.358333333333,-58.88888888888888,5.499999999999999,2.21
Fe4 Sb3,0.6675008753079555,2.0,0.6829081047004717,84.09444285714285,4.428571428571429,11.0,1422.1914285714286,9.795918367346937,5.571428571428571,1.9242857142857142
Fe4 Sb4 Pt4,0.5544518585956105,3.0,1.0986122886681098,124.23006666666666,5.0,11.0,1585.3933333333334,-8.88888888888889,5.666666666666666,2.0533333333333332
Fe4 Si1,1.7617469099592067,2.0,0.5004024235381879,50.29316,3.8000000000000003,9.200000000000001,1786.2000000000003,-22.400000000000006,5.6000000000000005,1.844
Fe4 Si2,0.763614428899977,2.0,0.6365141682948129,46.5918,3.6666666666666665,10.0,1769.6666666666665,-31.11111111111111,5.333333333333333,1.8533333333333333
Fe4 Si4 Mo4,0.2778898126899597,3.0,1.0986122886681098,59.96039999999999,4.0,9.333333333333332,2131.333333333333,-32.0,5.333333333333333,1.9633333333333334
Fe4 Si4 N8,0.5937796399699029,3.0,1.0397207708399179,27.98605,2.75,13.0,906.075,-92.75,5.0,2.4525
Fe4 Si4 Ni4,0.5305968067561975,3.0,1.0986122886681098,47.54121333333333,3.666666666666666,10.666666666666666,1742.0,-34.22222222222222,4.666666666666666,1.8800000000000001