chemical formula,saturation magnetization,compoundradix,stoicentw,Zw,periodw,groupw,meltingTw,miedemaH,valencew,electronegw
In2 Co21 B6,0.8511918441807202,3.0,0.7441295414112981,52.83080284137931,3.655172413793103,10.10344827586207,1795.9136896551724,-11.957193816884658,4.448275862068965,1.906206896551724
In2 Fe2 Ni2,0.7185923319901834,3.0,1.0986122886681098,76.45224666666667,4.333333333333333,10.333333333333332,1322.9161666666666,8.444444444444445,4.333333333333333,1.84
In2 Ni6,0.203370013848299,2.0,0.5623351446188083,72.724605,4.25,10.75,1403.437125,1.5,3.75,1.8775
In2 Ru6,0.2246217442537258,2.0,0.5623351446188083,104.508525,5.0,9.25,2062.687125,7.5,6.75,2.095
In3 Co20 B6,0.7265614675106408,3.0,0.8169151695570781,54.757868551724144,3.689655172413793,10.241379310344827,1749.7670862068967,-10.159334126040427,4.379310344827586,1.9027586206896552
Ir1,0.3427143836900255,1.0,-0.0,192.2173,6.0,9.0,2719.0,0.0,8.0,2.2
K1 Cd1 N3,0.6768090086810085,3.0,0.9502705392332346,38.706742,3.0,11.6,224.074,-116.47999999999999,3.6,2.326
K1 Fe1 Tc2,0.47232522418174283,3.0,1.0397207708399179,72.7358775,4.5,5.75,1751.925,51.25,5.25,1.6125
K1 H3,0.23077906315925403,2.0,0.5623351446188083,10.5305775,1.75,1.0,94.66749999999999,-12.0,1.0,1.8550000000000002
K1 Mg6 V1,0.21569809752197486,3.0,0.7356219397587946,29.483727499999997,3.25,2.25,1007.2125,22.125,2.25,1.28875
K1 Mn1 N1,0.5827296049130555,3.0,1.0986122886681098,36.01445143333333,3.333333333333333,7.666666666666666,639.6166666666667,-91.11111111111111,4.333333333333333,1.803333333333333
K1 Mn1 Ru1,0.6607121884566264,3.0,1.0986122886681098,65.0361181,4.333333333333333,5.333333333333333,1487.5666666666666,51.11111111111111,5.333333333333333,1.5233333333333332
K1 N1,0.4751703380618349,2.0,0.6931471805599453,26.552654999999998,3.0,8.0,199.92499999999998,-152.0,3.0,1.93
K1 N2,0.18253872528227752,2.0,0.6365141682948129,22.370769999999997,2.6666666666666665,10.333333333333334,154.33333333333331,-135.11111111111111,3.6666666666666665,2.3
K2 Al2 N8,0.7247304605759975,3.0,0.8675632284814613,20.351308094999997,2.5,12.333333333333334,253.79499999999996,-105.88888888888889,3.9999999999999996,2.4316666666666666
K2 Co2,0.35386264900398146,2.0,0.6931471805599453,49.015752199999994,4.0,5.0,1052.35,55.0,3.0,1.3499999999999999
K2 Fe2,0.48533543187858097,2.0,0.6931471805599453,47.471755,4.0,4.5,1073.85,81.0,3.5,1.325
K2 Mg12 Cr2,0.2562331535617801,3.0,0.7356219397587946,29.615558749999998,3.25,2.375,1006.8375,22.1875,2.375,1.2925
K2 Mg12 Mn2,0.23117413902192263,3.0,0.7356219397587946,29.983294287499998,3.25,2.5,924.2125,15.375,2.5,1.27875
K2 Mg12 V2,0.19953706871480248,3.0,0.7356219397587946,29.483727499999997,3.25,2.25,1007.2125,22.125,2.25,1.28875
K2 Mn1 Bi2,0.1941285576193539,3.0,1.054920167986144,110.21909326000001,4.800000000000001,7.800000000000001,656.3600000000001,6.720000000000002,3.8000000000000003,1.4460000000000002
K2 Mn2 Bi2,0.556941886910139,3.0,1.0986122886681098,101.00558509999999,4.666666666666666,7.666666666666666,800.1333333333333,20.0,4.333333333333333,1.4633333333333332
K2 Mn2 Sb2,0.5796595200456701,3.0,1.0986122886681098,71.93215143333332,4.333333333333333,7.666666666666666,919.8266666666666,14.666666666666668,4.333333333333333,1.4733333333333332
K2 N2,0.47788643634077055,2.0,0.6931471805599453,26.552654999999998,3.0,8.0,199.92499999999998,-152.0,3.0,1.93
K2 N6,0.18182977969127034,2.0,0.5623351446188083,20.2798275,2.5,11.5,131.5375,-114.0,4.0,2.4850000000000003
K2 Sn1 N6,0.7603936696086742,3.0,0.8486855577264171,31.21659111111111,2.7777777777777777,11.777777777777779,173.04222222222222,-117.4320987654321,4.0,2.4266666666666667
K2 Sn2 N6,0.44824521300908854,3.0,0.9502705392332346,39.966002,3.0,12.0,206.246,-117.27999999999999,4.0,2.38
K3 Cr1,0.308495917299852,2.0,0.5623351446188083,42.3227725,4.0,2.25,797.525,68.25,2.25,1.03
K3 Mn1,0.26367967127330166,2.0,0.5623351446188083,43.058243575,4.0,2.5,632.275,49.5,2.5,1.0025
K3 Mo1,0.2959959165456982,2.0,0.5623351446188083,53.3114825,4.25,2.25,976.525,90.0,2.25,1.155
K3 Nb1,0.32312774229516744,2.0,0.5623351446188083,52.5503255,4.25,2.0,940.025,92.25,2.0,1.015
K3 Re1,0.25940160847662896,2.0,0.5623351446188083,75.8755075,4.5,2.5,1117.275,71.25,2.5,1.0899999999999999
K3 Ta1,0.3258155338138575,2.0,0.5623351446188083,74.56070299999999,4.5,2.0,1075.025,89.25,2.0,0.99
K3 Tc1,0.23295619357684927,2.0,0.5623351446188083,53.8237325,4.25,2.5,860.025,48.75,2.5,1.0899999999999999
K3 Ti1,0.1935115873226079,2.0,0.5623351446188083,41.2905075,4.0,1.75,737.775,70.5,1.75,1.0
K3 V1,0.29321469151947693,2.0,0.5623351446188083,42.05911,4.0,2.0,798.275,72.0,2.0,1.0225
K3 W1,0.31480370674165614,2.0,0.5623351446188083,75.28398250000001,4.5,2.25,1176.275,93.0,2.25,1.205
K3 Zr1,0.21909830112947157,2.0,0.5623351446188083,52.1297825,4.25,1.75,784.525,66.0,1.75,0.9475
K4 Ba4 N12,0.45905975253726516,3.0,0.9502705392332346,43.689402,3.2,9.6,305.23,-173.76,3.6,2.166
K4 Co4,0.3450329879487505,2.0,0.6931471805599453,49.015752199999994,4.0,5.0,1052.35,55.0,3.0,1.3499999999999999
K4 Mn4 N4,0.2943712391262184,3.0,1.0986122886681098,36.01445143333333,3.333333333333333,7.666666666666666,639.6166666666667,-91.11111111111111,4.333333333333333,1.803333333333333
K4 Zn2 N8,0.5571281326476836,3.0,0.9556998911125343,28.51523142857143,2.8571428571428568,10.571428571428573,231.23999999999998,-125.87755102040816,3.4285714285714284,2.207142857142857
K4 Zr2,0.3129512403268131,2.0,0.6365141682948129,56.47360666666666,4.333333333333333,2.0,933.8,78.22222222222221,2.0,0.99
K6 Mn2,0.2581647338589783,2.0,0.5623351446188083,43.058243575,4.0,2.5,632.275,49.5,2.5,1.0025
K6 Mn2 H10,0.3419515557056387,3.0,0.936888307539016,19.696997144444442,2.333333333333333,1.6666666666666665,288.7833333333333,-10.469135802469136,1.6666666666666665,1.6677777777777778
K6 Nb2,0.3027424652581188,2.0,0.5623351446188083,52.5503255,4.25,2.0,940.025,92.25,2.0,1.015
K6 Re3,0.27682533891249006,2.0,0.6365141682948129,88.13457333333332,4.666666666666666,2.9999999999999996,1377.4666666666667,84.44444444444444,2.9999999999999996,1.18
K6 Tc3,0.28316115431015426,2.0,0.6365141682948129,58.73220666666666,4.333333333333333,2.9999999999999996,1034.4666666666667,57.77777777777777,2.9999999999999996,1.18
K8 Fe40 N32,0.32686910778947187,3.0,0.9433483923290392,37.435230999999995,3.1999999999999997,10.1,964.43,-77.72000000000001,5.1,2.213
K8 Mn4 B16 H64,0.21738484931768245,4.0,0.9053685045623692,8.369681056521738,1.565217391304348,3.3478260869565215,513.575652173913,-3.901701323251417,1.608695652173913,2.023913043478261
K8 Mn4 N16,0.23649218728599256,3.0,0.9556998911125343,27.023237757142855,2.8571428571428568,9.85714285714286,349.2857142857143,-127.3469387755102,4.142857142857142,2.1928571428571426
Li1 Cr1 Rh2,0.48364841262237745,3.0,1.0397207708399179,66.186791,4.0,6.25,1776.9125,-4.75,4.75,1.7999999999999998
Li1 Fe1 Pd2,0.8463146684748059,3.0,1.0397207708399179,68.9068,4.0,7.25,1480.1875,-15.5,3.75,1.8025000000000002
Li1 Fe1 Rh2,1.025245150052655,3.0,1.0397207708399179,67.149051,4.0,6.75,1684.6625,-3.0,4.75,1.8424999999999998
Li1 Fe6 Ge4,1.1629092049812744,3.0,0.9164648855394713,57.50312727272727,3.8181818181818183,9.545454545454545,1469.5681818181818,-11.702479338842974,4.818181818181818,1.8181818181818181
Li1 Mg6 Fe1,0.19085603452480404,3.0,0.7356219397587946,26.076900000000002,3.0,2.625,975.33125,8.375,2.375,1.33375
Li1 Mg6 V1,0.2225767523736302,3.0,0.7356219397587946,25.46393875,3.0,2.25,1021.83125,10.9375,2.25,1.3087499999999999
Li1 Mn1,1.0653715361858997,2.0,0.6931471805599453,30.93902215,3.0,4.0,986.325,19.0,4.0,1.2650000000000001
Li1 Mn1 N1,0.7479294421911405,3.0,1.0986122886681098,25.295014766666668,2.6666666666666665,7.666666666666666,678.5999999999999,-108.88888888888889,4.333333333333333,1.8566666666666665
Li1 Mn1 Pd2,0.9542557298812914,3.0,1.0397207708399179,68.68001107500001,4.0,7.0,1407.1875,-26.75,4.0,1.7325000000000002
Li1 Mn1 Pt2,0.9596294281088241,3.0,1.0397207708399179,113.011961075,4.5,7.0,1513.8625000000002,-25.75,5.0,1.7725
Li1 Mn1 Sb2,0.43322340054333586,3.0,1.0397207708399179,76.349561075,4.0,9.5,945.0525,-14.75,4.5,1.6575
Li1 N1,0.911878635239388,2.0,0.6931471805599453,10.4735,2.0,8.0,258.4,-145.0,3.0,2.01
Li1 Ni3,0.5062985797510136,2.0,0.5623351446188083,45.75508,3.5,7.75,1409.4125,0.75,3.25,1.6775
Li1 Pd7,0.25841416763397,2.0,0.37677016125643675,93.98587500000001,4.625,8.875,1656.25,-17.5,3.625,2.0475000000000003
Li1 Rh1,0.22713217123836113,2.0,0.6931471805599453,54.922751,3.5,5.0,1345.325,-14.0,3.5,1.63
Li1 V1 Bi1,0.5669456698826899,3.0,1.0986122886681098,88.95397033333333,4.0,7.0,1060.4499999999998,10.666666666666666,3.6666666666666665,1.5433333333333332
Li1 V1 Sb1,0.5305386205213743,3.0,1.0986122886681098,59.88053666666666,3.666666666666666,7.0,1180.1433333333332,0.44444444444444464,3.6666666666666665,1.553333333333333
Li1 Zr1 N2,0.2154852211682292,3.0,1.0397207708399179,31.544549999999997,2.75,8.75,676.9875000000001,-182.25,3.75,2.0975
Li12 Fe2 N8,0.22659334462413225,3.0,0.9164648855394713,13.955745454545454,2.1818181818181817,6.7272727272727275,435.0454545454545,-121.38842975206612,2.909090909090909,1.8063636363636364
Li12 Ru2 N8,0.18201048579168594,3.0,0.9164648855394713,18.067272727272726,2.2727272727272725,6.7272727272727275,507.4090909090908,-122.11570247933884,3.090909090909091,1.84
Li19 Mn5 N9,0.4929354490145212,3.0,0.9581272171525758,16.13979459090909,2.303030303030303,5.727272727272727,508.5666666666667,-104.11386593204774,3.0,1.6281818181818182
Li2 Ca1 N2,0.3844676519563279,3.0,1.054920167986144,16.39448,2.4000000000000004,6.800000000000001,429.72,-157.44,2.8000000000000003,1.808
Li2 Ca4 Fe2 N4,0.36507342595420017,4.0,1.3296613488547582,28.492666666666665,2.9999999999999996,7.166666666666666,770.1583333333333,-132.66666666666669,3.5,1.815
Li2 Co1 N2,0.22628671788917862,3.0,1.054920167986144,20.16543888,2.4000000000000004,8.200000000000001,560.32,-114.24000000000001,3.4000000000000004,1.9840000000000002
Li2 Co1 Sb1,0.3573922981306167,3.0,1.0397207708399179,48.643323599999995,3.25,6.5,894.77,-9.5,3.0,1.4725
Li2 Cr2 N4,0.2568302020139613,3.0,1.0397207708399179,21.73754,2.5,9.25,689.9875000000001,-117.25,4.25,2.1799999999999997
Li2 Cr4 N6,0.6887856247895977,3.0,1.0114042647073518,25.49222,2.6666666666666665,9.666666666666666,833.85,-111.88888888888889,4.666666666666666,2.2366666666666664
Li2 Fe1 N1,0.8107486258590911,3.0,1.0397207708399179,20.93305,2.5,6.25,695.3625000000001,-81.25,3.25,1.7075
Li2 Fe12 Ge10,0.7024442302655007,3.0,0.9184277849930975,58.76376666666667,3.8333333333333335,9.916666666666668,1448.0541666666668,-13.375000000000002,4.75,1.8341666666666665
Li2 Fe2,0.9674417394203372,2.0,0.6931471805599453,31.392599999999998,3.0,4.5,1132.325,26.0,3.5,1.405
Li2 Mg12 Cr2,0.29202763232237167,3.0,0.7356219397587946,25.59577,3.0,2.375,1021.45625,11.1875,2.375,1.3125
Li2 Mg12 Mn2,0.28325102837882044,3.0,0.7356219397587946,25.9635055375,3.0,2.5,938.83125,4.9375,2.5,1.29875
Li2 Mg12 V2,0.229877608127316,3.0,0.7356219397587946,25.46393875,3.0,2.25,1021.83125,10.9375,2.25,1.3087499999999999
Li2 Mn1 N1,0.9314276459330713,3.0,1.0397207708399179,20.706261075,2.5,6.0,622.3625000000001,-92.75,3.5,1.6375
Li2 Mn1 N2,0.8130197714962284,3.0,1.054920167986144,19.36640886,2.4000000000000004,7.800000000000001,510.52,-124.80000000000001,3.8000000000000003,1.9180000000000001
Li2 Mn2 N4,0.2227721533014295,3.0,1.0397207708399179,22.473011075,2.5,9.5,524.7375000000001,-127.25,4.5,2.1525
Li2 Mn2 Sb2,0.7252673780234102,3.0,1.0986122886681098,61.21271476666666,3.666666666666666,7.666666666666666,958.81,-8.888888888888886,4.333333333333333,1.5266666666666664
Li2 Mn4 N6,0.42791271635825234,3.0,1.0114042647073518,26.4728481,2.6666666666666665,10.0,613.5166666666667,-123.44444444444443,5.0,2.2
Li2 N1,0.40995873424316265,2.0,0.6365141682948129,9.295666666666667,2.0,5.666666666666666,323.4833333333333,-128.88888888888889,2.333333333333333,1.6666666666666665
Li2 Ti1 Bi1,0.4521203704012652,3.0,1.0397207708399179,67.68187525,3.5,5.25,848.25,2.0,2.75,1.38
Li2 V1 N2,0.2697215404770296,3.0,1.054920167986144,18.567102000000002,2.4000000000000004,7.4,643.32,-126.72000000000003,3.4000000000000004,1.9340000000000002
Li22 V7 Sn7,0.41192546496789584,3.0,0.9378057145489618,37.229040833333336,2.9722222222222223,4.305555555555555,799.9127777777778,8.87962962962963,2.361111111111111,1.2969444444444445
Li24 Cr8 N16,0.27343274959647845,3.0,1.0114042647073518,16.805026666666667,2.333333333333333,6.5,611.2083333333333,-108.77777777777776,3.1666666666666665,1.7799999999999998
Li24 Mn8 N16,0.3839785287089334,3.0,1.0114042647073518,17.295340716666665,2.333333333333333,6.666666666666666,501.0416666666667,-116.77777777777777,3.333333333333333,1.7616666666666665
Li24 V8 N16,0.29798798562706463,3.0,1.0114042647073518,16.629251666666665,2.333333333333333,6.333333333333333,611.7083333333333,-116.1111111111111,3.0,1.775
Li3 Co1,0.2067968423032411,2.0,0.5623351446188083,19.9382986,2.5,3.0,782.2375,6.0,2.0,1.205
Li3 Cr1,0.7521871366765122,2.0,0.5623351446188083,18.20404,2.5,2.25,885.2375,26.25,2.25,1.15
Li3 Fe18 Ge18,0.8388764358037384,3.0,0.9110175397125629,59.83046153846154,3.8461538461538463,10.230769230769232,1429.8500000000001,-14.414201183431954,4.6923076923076925,1.8476923076923077
Li3 Mo1,0.5400829464519545,2.0,0.5623351446188083,29.192749999999997,2.75,2.25,1064.2375,36.75,2.25,1.275
Li3 N2,0.6020260432789738,2.0,0.6730116670092564,9.7668,2.0,6.6000000000000005,297.45,-139.2,2.6,1.804
Li3 Nb1,0.3773490045103744,2.0,0.5623351446188083,28.431593,2.75,2.0,1027.7375,38.25,2.0,1.135
Li3 Tc1,0.412054092489117,2.0,0.5623351446188083,29.705,2.75,2.5,947.7375,6.0,2.5,1.21
Li3 W1,0.5508110679206176,2.0,0.5623351446188083,51.16525,3.0,2.25,1263.9875,37.5,2.25,1.325
Li36 Fe10 N24,0.29228188854412557,3.0,0.9869834614392003,16.34942857142857,2.2857142857142856,6.800000000000002,513.6714285714286,-111.67346938775509,3.085714285714286,1.8077142857142856
Li4 Ca2 Mn4 N4,0.7968847329733643,4.0,1.351783994289646,27.40692694285714,2.8571428571428568,6.857142857142858,740.9428571428571,-109.87755102040816,3.9999999999999996,1.7342857142857142
Li4 Cr4 N4,0.24409307416384157,3.0,1.0986122886681098,24.314386666666667,2.6666666666666665,7.333333333333333,898.9333333333332,-96.44444444444443,3.9999999999999996,1.893333333333333
Li4 Fe1 N2,0.4231100750749171,3.0,0.9556998911125343,15.945599999999999,2.2857142857142856,6.000000000000001,535.9857142857142,-100.40816326530611,2.8571428571428568,1.69
Li4 Mn24 N28,0.2613487978033284,3.0,0.8982053397041498,31.044090414285712,2.8571428571428568,10.571428571428571,714.9785714285715,-120.38775510204081,5.571428571428571,2.2542857142857144
Li4 Mn4 N4,0.18438447342743183,3.0,1.0986122886681098,25.295014766666668,2.6666666666666665,7.666666666666666,678.5999999999999,-108.88888888888889,4.333333333333333,1.8566666666666665
Li4 Mn8 N6,0.8864098692969344,3.0,1.0608569471580214,30.6281308,2.888888888888889,8.333333333333332,796.9722222222222,-105.97530864197532,5.0,1.92
Li4 N4,0.9059220003931011,2.0,0.6931471805599453,10.4735,2.0,8.0,258.4,-145.0,3.0,2.01
Li4 V2 Pb4,0.36175983899126496,3.0,1.0549201679861442,95.84830200000002,4.0,7.0,858.3040000000001,3.1999999999999993,3.0,1.4660000000000002
Li56 Mn8 N32,0.22024775264215485,3.0,0.887694275799104,13.295503691666667,2.1666666666666665,6.166666666666666,412.2625,-122.30555555555557,2.8333333333333335,1.7141666666666666
Li56 Re8 N32,0.19548892976102836,3.0,0.887694275799104,24.234591666666667,2.3333333333333335,6.166666666666666,573.9291666666666,-115.1388888888889,2.8333333333333335,1.7433333333333332
Li6 Ca2 Mn2 N6,0.2620335396762156,4.0,1.2554823251787535,19.7321805375,2.5,7.125,523.05,-137.0,3.375,1.82625
Li6 Co2,0.1916947317868987,2.0,0.5623351446188083,19.9382986,2.5,3.0,782.2375,6.0,2.0,1.205
Li6 Cr2,0.7381041798346134,2.0,0.5623351446188083,18.20404,2.5,2.25,885.2375,26.25,2.25,1.15
Li6 Fe2,0.4552302160974696,2.0,0.5623351446188083,19.1663,2.5,2.75,792.9875,19.5,2.25,1.1925
Li6 Fe2 N4,0.637447230921691,3.0,1.0114042647073518,17.44653333333333,2.333333333333333,6.833333333333333,549.7083333333333,-107.33333333333331,3.1666666666666665,1.8083333333333333
Li6 H4 N4,0.1903208161216482,3.0,1.0789922078775833,7.264285714285713,1.7142857142857142,5.000000000000001,216.46142857142854,-89.14285714285714,2.142857142857143,1.917142857142857
Li6 Mn2 N3,0.6322653916059003,3.0,0.9949236325717751,17.59428078181818,2.3636363636363633,5.909090909090908,540.85,-102.34710743801651,3.1818181818181817,1.6454545454545455
Li6 Mn3 N6,0.22681878818323856,3.0,1.054920167986144,19.36640886,2.4000000000000004,7.800000000000001,510.52,-124.80000000000001,3.8000000000000003,1.9180000000000001
Li6 Re2,0.26560661529722007,2.0,0.5623351446188083,51.756775,3.0,2.5,1204.9875,21.75,2.5,1.21
Li7 Mn2 N3,0.6953892313085932,3.0,0.9596147939120492,16.70642405,2.3333333333333335,5.5,533.5833333333334,-97.02777777777779,3.0,1.5899999999999999
Li9 Mn3 N4,0.73833270087926,3.0,0.9840865030829147,17.70638330625,2.375,5.625,555.778125,-95.859375,3.125,1.6018750000000002
Li9 Ta11 N20,0.3182196905766797,3.0,1.0372165874167396,58.325667550000006,3.1,9.1,1038.39625,-148.52,4.1,2.153
Mg1 Cr1,1.2124653237995888,2.0,0.6931471805599453,38.150580000000005,3.5,4.0,1551.5,24.0,4.0,1.4849999999999999
Mg1 Cr2 N2,0.9326587449190379,3.0,1.054920167986144,31.262264000000002,3.0,8.8,1081.86,-103.68000000000004,4.800000000000001,2.1420000000000003
Mg1 Cu2 N2,0.32363679059199113,3.0,1.054920167986144,35.88232,3.0,10.8,752.9680000000001,-97.60000000000002,4.0,2.238
Mg1 Fe1 Rh2,0.9234006443728724,3.0,1.0397207708399179,71.490301,4.25,7.0,1802.0,-6.5,5.0,1.9249999999999998
Mg1 Fe2 N2,0.5491148164408749,3.0,1.054920167986144,32.801880000000004,3.0,9.6,934.2600000000001,-92.80000000000001,4.800000000000001,2.2100000000000004
Mg1 Fe6 Ge6,0.8780368973880283,3.0,0.9110175397125629,61.16623076923077,3.9230769230769234,10.307692307692308,1465.9538461538464,-14.414201183431954,4.769230769230769,1.873076923076923
Mg1 Mn1 N2,0.9585785011180652,3.0,1.0397207708399179,26.814261075,2.75,9.75,642.075,-124.0,4.75,2.2350000000000003
Mg1 Mn1 Ni2 Sb2,0.3341777996112544,4.0,1.3296613488547582,73.35835404999999,4.166666666666667,9.833333333333334,1284.26,-7.999999999999999,4.5,1.7966666666666664
Mg1 Mn1 Pd2,0.866795146181577,3.0,1.0397207708399179,73.02126107500001,4.25,7.25,1524.525,-29.0,4.25,1.8150000000000002
Mg1 Mn1 Pt2,0.8786548907940088,3.0,1.0397207708399179,117.353211075,4.75,7.25,1631.2,-29.0,5.25,1.855
Mg1 Mn1 Rh2,0.8450584807620022,3.0,1.0397207708399179,71.263512075,4.25,6.75,1729.0,-14.0,5.25,1.8549999999999998
Mg1 Mn2 N2,0.8363993461674816,3.0,1.054920167986144,32.43901772,3.0,9.200000000000001,817.46,-115.84000000000002,5.2,2.0980000000000003
Mg1 Mn6 Ge6,0.8715129776645894,3.0,0.9110175397125629,60.74754352307693,3.9230769230769234,9.846153846153847,1331.1846153846154,-29.183431952662726,5.230769230769231,1.7438461538461538
Mg1 Mn6 Sn6,0.6983247602384501,3.0,0.9110175397125629,82.01518967692309,4.384615384615385,9.846153846153847,1005.1907692307693,-5.822485207100593,5.230769230769231,1.7207692307692308
Mg1 N8,0.40650942349013736,2.0,0.34883209584303193,15.151222222222222,2.111111111111111,13.555555555555555,158.68888888888887,-52.938271604938265,4.666666666666666,2.8477777777777775
Mg1 Ni3,0.2604095922082896,2.0,0.5623351446188083,50.09633,3.75,8.0,1526.75,-3.0,3.5,1.76
Mg1 Ni5,0.317977931228082,2.0,0.45056120886630463,52.96203333333334,3.8333333333333335,8.666666666666668,1593.8333333333333,-2.2222222222222223,3.666666666666667,1.81
Mg1 Ti2 H6,0.31932501448721906,3.0,0.8486855577264172,14.009688888888888,1.8888888888888888,1.7777777777777777,543.2155555555556,-36.04938271604938,1.7777777777777777,1.9544444444444444
Mg1 Ti3,0.5410967501589676,2.0,0.5623351446188083,41.976575,3.75,3.5,1686.5,12.0,3.5,1.4825
Mg1 V1 Rh2,0.2006411783896527,3.0,1.0397207708399179,70.2643785,4.25,6.25,1895.0,-17.25,4.75,1.8749999999999998
Mg10 Co2 N8,0.2840939983660393,3.0,0.9433483923290392,23.648619439999997,2.7,7.9,663.56,-118.60000000000001,3.5,2.059