chemical formula,saturation magnetization,compoundradix,stoicentw,Zw,periodw,groupw,meltingTw,miedemaH,valencew,electronegw
Zr4 Mn4 Al4,0.2104133244901856,3.0,1.0986122886681098,57.714594289999994,4.0,7.999999999999999,1526.8233333333333,-34.666666666666664,4.666666666666666,1.4966666666666666
Zr4 Mn4 Fe4,0.4825036204579971,3.0,1.0986122886681098,67.33581476666666,4.333333333333333,6.333333333333333,1819.3333333333333,-17.77777777777778,5.666666666666666,1.57
Zr4 Mn4 Ge4,0.6864341936882469,3.0,1.0986122886681098,72.93101476666666,4.333333333333333,8.333333333333334,1619.4666666666665,-52.888888888888886,5.0,1.63
Zr4 Mn4 N8,0.8831799764919137,3.0,1.0397207708399179,43.544061075,3.25,10.25,943.325,-179.75,5.25,2.24
Zr4 Mn4 Si4,0.7146311119288122,3.0,1.0986122886681098,58.08241476666666,4.0,8.333333333333332,1777.9999999999998,-63.99999999999999,5.0,1.5933333333333333
Zr4 Mn8,1.123186505074017,2.0,0.6365141682948129,67.03342953333333,4.333333333333333,6.0,1722.0,-13.333333333333332,6.0,1.4766666666666666
Zr4 V4 Fe4,0.1857951523244885,3.0,1.0986122886681098,66.00363666666667,4.333333333333333,5.666666666666667,2040.6666666666665,-16.0,5.0,1.5966666666666667
Zr5 Co4 Ni1,0.2129190911359236,3.0,0.9433483923290392,75.05472175999999,4.5,6.6000000000000005,1944.0,-42.60000000000001,4.4,1.608
Zr6 Co23,1.0047553889610557,2.0,0.5098156995816887,65.61409211034483,4.206896551724138,7.9655172413793105,1842.4827586206898,-26.910820451843044,4.793103448275862,1.7662068965517241
Zr6 Fe23,1.4579845545488213,2.0,0.5098156995816887,63.164993103448275,4.206896551724138,7.172413793103448,1876.5862068965519,-16.409036860879905,5.586206896551724,1.7265517241379311
Zr6 Mn1 Bi2,0.18364279253637808,3.0,0.8486855577264171,113.36044958888888,5.111111111111111,6.777777777777779,1708.4888888888888,-27.851851851851848,4.555555555555555,1.5077777777777779
Zr6 Mn4 Ga12,0.24209991263163058,3.0,0.9949236325717751,72.89884441818181,4.2727272727272725,9.454545454545455,1021.7716,-31.933884297520656,4.0,1.6318181818181816
Zr6 Mn4 Ni8,0.28046411634998136,3.0,1.0608569471580214,68.70249428888889,4.333333333333333,7.333333333333334,1814.8888888888887,-36.641975308641975,4.666666666666666,1.6366666666666665
Zr6 Mn6 Si12,0.217186284547817,3.0,1.0397207708399179,50.583061075,3.75,9.75,1755.25,-68.25,4.75,1.67
Zr6 V2,0.22035238120695153,2.0,0.5623351446188083,81.1535275,4.75,4.25,2141.75,-3.0,4.25,1.405
Zr8 Fe16,0.9516696823164202,2.0,0.6365141682948129,67.6382,4.333333333333333,6.666666666666666,1916.6666666666665,-22.22222222222222,5.333333333333333,1.6633333333333333
Zr8 Fe8 Si14,0.2649124110332645,3.0,1.0606018056124555,52.324839999999995,3.8,9.733333333333333,1837.6666666666667,-66.34666666666666,4.533333333333333,1.7293333333333332
Zr8 Mn16,1.1247104362430789,2.0,0.6365141682948129,67.03342953333333,4.333333333333333,6.0,1722.0,-13.333333333333332,6.0,1.4766666666666666
Zr8 V2,0.21390170894911775,2.0,0.5004024235381879,83.167662,4.8,4.2,2139.0,-2.5600000000000005,4.2,1.3900000000000001