chemical formula,saturation magnetization,compoundradix,stoicentw,Zw,periodw,groupw,meltingTw,miedemaH,valencew,electronegw
Mn4 Si8 N14,0.7494088654863381,3.0,0.9839614460010255,24.63577604615385,2.6153846153846154,13.461538461538462,786.773076923077,-101.63313609467457,5.0,2.46
Mn4 Sn2,1.4541708627251901,2.0,0.6365141682948129,76.1955962,4.333333333333333,9.333333333333332,1181.0266666666666,-6.222222222222221,6.0,1.6866666666666665
Mn4 Sn2 Pd6,0.5218027173059449,3.0,1.0114042647073518,91.30829810000002,4.666666666666666,9.666666666666666,1504.5383333333332,-28.22222222222222,5.0,1.9433333333333334
Mn4 Sn4 N8,0.20933383609814238,3.0,1.0397207708399179,50.415686075,3.25,12.75,537.595,-106.25,5.25,2.3975
Mn4 V2 N6,0.9644084716847491,3.0,1.0114042647073518,33.8064331,3.0,10.666666666666666,901.7416666666667,-127.22222222222223,5.666666666666666,2.308333333333333
Mn4 V4 N8,0.6711936066947065,3.0,1.0397207708399179,33.473388575,3.0,10.5,957.075,-131.25,5.5,2.315
Mn4 Zn4 N8,0.27701253317333563,3.0,1.0397207708399179,37.083511075000004,3.0,12.25,584.495,-105.0,4.75,2.3200000000000003
Mn40 Co4 N36,0.6516803994633683,3.0,0.8556886672556695,36.71883187,3.1,10.700000000000001,876.3175,-114.35000000000001,6.0,2.237
Mn40 Cr4 N36,0.5773917614256969,3.0,0.8556886672556695,36.37198015,3.1,10.55,896.9175,-116.53,6.05,2.226
Mn40 Si16,0.6461894699790894,2.0,0.5982695885852573,47.26574592857143,3.7142857142857144,9.0,1567.0,-36.734693877551024,6.142857142857143,1.65
Mn44 Ge32,1.2025045559333676,2.0,0.6806294878916634,62.38762564736842,4.0,9.947368421052632,1389.4842105263158,-30.714681440443215,5.7368421052631575,1.7436842105263157
Mn5 Al2 V1,0.7213211720521803,3.0,0.9002560512685369,47.44935108,3.75,8.25,1455.6175,-14.1875,5.75,1.5750000000000002
Mn5 B1 Pd15,0.8523035800341888,3.0,0.7270013625470586,89.61024864285714,4.619047619047619,9.428571428571429,1779.2738095238094,-20.36281179138322,4.666666666666667,2.0376190476190477
Mn5 Fe5 Si6,0.9999692154943216,3.0,1.0947802260079478,45.15163884375,3.625,9.9375,1673.25,-37.5,5.5625,1.7687499999999998
Mn5 Ga4 Pd3,1.1058179717251537,3.0,1.077556327066801,72.737135125,4.25,9.75,1190.9007000000001,-30.805555555555557,4.916666666666667,1.7991666666666668
Mn5 Ga5 Ni10,1.015839329967484,3.0,1.0397207708399179,60.512006075,4.0,10.0,1319.47865,-14.75,4.5,1.795
Mn5 In4 Sb1 Pd10,0.7332703383229754,4.0,1.1648213767244648,95.99663607500001,4.75,10.1,1424.9137,-26.810000000000002,4.6,1.9460000000000002
Mn5 Ni8 Sn3,1.1222325669507358,3.0,1.0239287996389363,68.77311509375001,4.1875,9.8125,1433.3899999999999,-8.140625,4.9375,1.806875
Mn5 Sb4,1.0073068958966684,2.0,0.6869615765973234,84.63673572222221,4.444444444444445,10.555555555555555,1245.568888888889,-10.864197530864196,6.111111111111112,1.7722222222222221
Mn6 Al2 N6,1.4030188762365305,3.0,1.0042424730540764,33.40238163857143,3.0,11.285714285714285,811.4171428571428,-114.61224489795916,5.571428571428571,2.197142857142857
Mn6 Al20,0.32400066785792414,2.0,0.5402041423888608,33.4330398923077,3.230769230769231,11.615384615384615,1068.5923076923077,-13.491124260355031,3.9230769230769234,1.5961538461538463
Mn6 Al6 N10,0.9316228298624202,3.0,1.0670895187820832,28.70852260090909,2.818181818181818,12.272727272727272,697.56,-110.28099173553719,5.0,2.2436363636363637
Mn6 Co2 N6,0.9658221387390366,3.0,1.0042424730540764,37.9669039,3.142857142857143,10.714285714285714,930.6357142857142,-107.02040816326529,5.857142857142857,2.2357142857142858
Mn6 Cr2 N6,1.0466684447704024,3.0,1.0042424730540764,36.97589898571428,3.142857142857143,10.285714285714285,989.492857142857,-113.14285714285712,6.0,2.204285714285714
Mn6 Cr4 N8,0.4220018714481019,3.0,1.0608569471580214,36.09271698888889,3.111111111111111,10.333333333333332,1018.8444444444444,-112.19753086419752,5.888888888888888,2.2366666666666664
Mn6 Cu8 Bi8,0.6476814169517631,3.0,1.0900596587107838,114.08372153636364,4.7272727272727275,11.363636363636363,1106.08,10.710743801652892,5.181818181818182,1.8481818181818181
Mn6 Fe2 N6,1.067875263838681,3.0,1.0042424730540764,37.52576184285714,3.142857142857143,10.571428571428571,936.7785714285715,-108.73469387755101,5.999999999999999,2.2285714285714286
Mn6 Fe6 N10,0.3457748195849682,3.0,1.0670895187820832,36.58043026363636,3.090909090909091,10.909090909090908,936.8863636363636,-102.14876033057851,5.8181818181818175,2.3036363636363637
Mn6 Ga1 Ge1,1.1075517137078246,3.0,0.7356219397587946,58.997770725,4.0,8.625,1328.539325,-17.65625,6.125,1.6400000000000001
Mn6 Ga2,0.9440137723465712,2.0,0.5623351446188083,58.634308225,4.0,8.5,1214.97865,-9.75,6.0,1.615
Mn6 Ga4 N8,0.36257422088942043,3.0,1.0608569471580214,40.03203698888888,3.111111111111111,11.88888888888889,601.7143555555556,-111.90123456790124,5.222222222222222,2.27
Mn6 Ga6 N10,0.23772150110425724,3.0,1.0670895187820832,40.36531208181818,3.090909090909091,12.272727272727272,525.5903454545454,-109.98347107438016,5.0,2.298181818181818
Mn6 Ge2,1.1744020038158534,2.0,0.5623351446188083,59.361233225,4.0,8.75,1442.1,-23.625,6.25,1.665
Mn6 Ge2 N2,1.141972798263727,3.0,0.9502705392332346,50.290386579999996,3.6,10.0,1166.3100000000002,-84.8,6.0,1.94
Mn6 Ge6 Rh6,1.0706448596941958,3.0,1.0986122886681098,76.8247821,4.333333333333333,10.0,1655.8,-34.22222222222222,5.666666666666666,1.9466666666666663
Mn6 Ni8 Sb2,0.4830807611087462,3.0,0.9743147528693494,65.1684991125,4.125,9.5,1546.5974999999999,-8.3125,5.25,1.7925
Mn6 Pt1 Rh1,0.7277574066875603,3.0,0.7356219397587946,78.452333475,4.375,7.625,1674.05,-16.625,6.75,1.7325
Mn6 Sb2,1.1076253489037433,2.0,0.5623351446188083,71.64355822499999,4.25,9.0,1365.195,-8.25,6.5,1.675
Mn6 Si12 N22,0.612064418974396,3.0,0.9745701894462543,24.370056645,2.6,13.5,768.6824999999999,-100.83000000000001,5.0,2.4745000000000004
Mn6 Si2 N8,1.525092086297132,3.0,0.9743147528693494,31.1158916125,2.875,11.875,812.075,-117.9375,5.625,2.33875
Mn6 Si2 W4,0.7810415734486732,3.0,1.0114042647073518,93.43018881666667,4.5,7.833333333333333,2272.333333333333,-17.88888888888889,6.166666666666667,1.8783333333333334
Mn6 Si7,0.8474444853570385,2.0,0.6901856760188042,40.47871275384615,3.4615384615384617,10.76923076923077,1609.4615384615386,-44.73372781065088,5.384615384615385,1.7384615384615385
Mn6 Si7 Ni16,0.8932174331487869,3.0,0.997180401897094,50.52821744137931,3.758620689655172,10.344827586206897,1674.8620689655172,-33.950059453032104,4.620689655172414,1.8331034482758621
Mn6 Sn2,1.7161479779096396,2.0,0.5623351446188083,70.881208225,4.25,8.75,1265.52,-5.25,6.25,1.6525
Mn6 Sn4 Pd10,0.9052750484157407,3.0,1.0296530140645737,93.43405329000001,4.7,9.9,1470.741,-29.08,4.8999999999999995,1.957
Mn6 V2 N6,1.123849391753365,3.0,1.0042424730540764,36.825234699999996,3.142857142857143,10.142857142857142,989.9214285714286,-122.69387755102039,5.857142857142857,2.1999999999999997
Mn6 V4 Si6,0.7247350601972835,3.0,1.0821955300387673,43.8690191125,3.625,9.125,1748.0,-43.6875,5.375,1.70125
Mn7 Al4 V5,0.5695971215030166,3.0,1.0717300941124526,46.70000089875,3.75,7.875,1580.1175,-13.859375,5.375,1.5899999999999999
Mn7 Co1 Sb4,1.2271344371000281,3.0,0.887694275799104,77.54499204166666,4.333333333333333,9.833333333333334,1334.6766666666667,-9.305555555555555,6.166666666666667,1.7441666666666666
Mn7 Ni8 Sn1,1.7327736975935843,3.0,0.8815322611881636,60.801533131250004,4.0625,8.9375,1560.13,-8.265625,5.3125,1.755625
Mn7 Pd9,1.5692566376132762,2.0,0.6853142072764582,83.89720688125001,4.5625,8.6875,1692.840625,-22.640625,5.3125,1.9156250000000001
Mn7 Sb4,1.276151127372322,2.0,0.6554817739013928,79.23697364545455,4.363636363636363,9.90909090909091,1295.2836363636363,-10.181818181818182,6.2727272727272725,1.7318181818181817
Mn7 Sn1 N2,1.1447759251579666,3.0,0.8018185525433373,53.12910101,3.6999999999999997,9.3,1126.438,-75.79999999999998,6.3,1.889
Mn8 B16 H112 N16,0.3106420263788442,4.0,0.8539446982794193,6.246528647368421,1.368421052631579,4.052631578947368,344.1663157894737,-13.894736842105264,1.9473684210526314,2.2373684210526315
Mn8 B8,0.5174542993463191,2.0,0.6931471805599453,32.87402215,3.0,10.0,1934.0,-32.0,5.0,1.795
Mn8 Co8 Sb8,0.9430393815366518,3.0,1.0986122886681098,78.54377956666666,4.333333333333333,10.333333333333334,1396.9266666666665,-6.222222222222221,5.666666666666666,1.8266666666666664
Mn8 Fe2 Ge6,1.5858370731469456,3.0,0.9743147528693494,61.68622215,4.0,9.75,1440.15,-26.53125,5.75,1.7574999999999998
Mn8 Fe3 N8,1.7400287191257355,3.0,1.0198652142779299,37.84715549473684,3.1578947368421053,10.526315789473683,952.1157894736841,-107.52354570637118,6.0,2.221578947368421
Mn8 Fe4 Sb6,1.1520195381888878,3.0,1.0608569471580214,77.41365302222222,4.333333333333333,9.88888888888889,1378.8155555555554,-3.5555555555555554,6.111111111111111,1.7788888888888887
Mn8 Ga6 Cu4,1.1027522581761735,3.0,1.0608569471580214,61.77934191111111,4.0,9.88888888888889,1077.8093111111111,-5.82716049382716,5.0,1.7144444444444444
Mn8 N4,1.9685826048909862,2.0,0.6365141682948129,41.29436286666666,3.333333333333333,9.666666666666666,1033.7166666666667,-105.77777777777777,6.333333333333333,2.0466666666666664
Mn8 Nb3 Al1,0.6921358469645768,3.0,0.8239592165010823,62.100417414166664,4.166666666666666,6.999999999999999,1777.9558333333334,-8.38888888888889,6.166666666666666,1.5675
Mn8 Nb4,0.6750318588504519,2.0,0.6365141682948129,67.59415353333333,4.333333333333333,6.333333333333333,1929.3333333333333,-3.5555555555555554,6.333333333333333,1.5666666666666667
Mn8 Nb4 Si10,0.721744234305202,3.0,1.0361987848192837,49.63544738181818,3.727272727272727,9.818181818181818,1819.181818181818,-49.32231404958678,5.2727272727272725,1.7181818181818183
Mn8 Ru2 N8,0.2502826800380318,3.0,0.9649629230074277,41.87246413333333,3.222222222222222,10.666666666666666,992.8444444444444,-108.24691358024691,6.222222222222222,2.2844444444444445
Mn8 Sb4 N12,0.2736624037646113,3.0,1.0114042647073518,45.60953143333333,3.1666666666666665,12.333333333333332,688.5383333333334,-106.44444444444443,5.666666666666666,2.3783333333333334
Mn8 Sn2 N8,0.24473632259998276,3.0,0.9649629230074277,43.83231968888889,3.222222222222222,11.333333333333332,759.2977777777778,-113.18518518518518,5.777777777777778,2.2577777777777777
Mn8 V2 N8,0.9859621124302415,3.0,0.9649629230074277,36.302409688888886,3.111111111111111,10.333333333333332,945.7333333333333,-122.46913580246913,5.888888888888888,2.221111111111111
Mn9 Al4 V3,0.430412676022906,3.0,0.9840865030829147,47.19956768625,3.75,8.125,1497.1175,-14.109375,5.625,1.58
Mn9 Au3,2.0484688933462487,2.0,0.5623351446188083,90.4451756,4.5,8.0,1473.5825,-8.25,6.5,1.7975
Mn9 Au31,0.6639469357570527,2.0,0.5331638407372986,165.01015132999999,5.55,10.1,1378.20575,-7.6725,5.45,2.31725
Mn9 B18 H72,0.521945168164533,3.0,0.7595473914748635,7.692913118181819,1.4545454545454546,3.7272727272727275,575.3563636363637,-8.462809917355372,1.9090909090909092,2.1118181818181823
Mn9 Fe2 N8,1.354128140628607,3.0,0.955131195451464,37.79941045789474,3.1578947368421053,10.473684210526315,936.7473684210526,-110.36011080332409,6.052631578947368,2.2068421052631577
Mo1 N1,0.3492158059651134,2.0,0.6931471805599453,54.979,3.5,10.5,1479.575,-115.0,5.5,2.6
Mo1 Pb3,0.40576767255823054,2.0,0.5623351446188083,179.39525,5.75,12.0,1174.4575,31.5,4.5,1.9425000000000001
Mo1 Pt3,0.36698519651881484,2.0,0.5623351446188083,170.301425,5.75,9.0,2255.05,-21.0,6.0,2.25
N10,0.5098161879110111,1.0,-0.0,14.007,2.0,15.0,63.15,0.0,5.0,3.04
N16,0.23940762661120463,1.0,-0.0,14.007,2.0,15.0,63.15,0.0,5.0,3.04
N2,0.9380369771555431,1.0,-0.0,14.007,2.0,15.0,63.15,0.0,5.0,3.04
N4,0.7940289457296493,1.0,-0.0,14.007,2.0,15.0,63.15,0.0,5.0,3.04
Na1 Fe1 N1,0.4359804603680793,3.0,1.0986122886681098,30.947323093999998,2.9999999999999996,8.0,748.3646666666666,-73.77777777777777,3.9999999999999996,1.9333333333333333
Na1 N1,0.7455844197695842,2.0,0.6931471805599453,18.498384641,2.5,8.0,217.047,-141.0,3.0,1.985
Na1 N3,0.2917067135240752,2.0,0.5623351446188083,16.2526923205,2.25,11.5,140.0985,-105.75,4.0,2.5125
Na1 Ni3,0.3119560784415517,2.0,0.5623351446188083,49.7675223205,3.75,7.75,1388.736,24.0,3.25,1.665
Na1 Sr1 Re2,0.6327695309828952,3.0,1.0397207708399179,120.7562423205,5.0,4.25,2084.736,55.5,4.25,1.42
Na12 Au4 N8,0.20570208232477538,3.0,1.0114042647073518,48.99164622433333,3.1666666666666665,7.333333333333333,429.4103333333333,-111.55555555555556,3.0,1.9016666666666666
Na12 Os4,0.20507754085653707,2.0,0.5623351446188083,64.8005769615,3.75,2.75,1104.708,39.0,2.75,1.2475
Na2 B1 H4 N1,0.22477476417217054,4.0,1.2130075659799042,9.353567320500002,1.75,4.25,401.24975,-28.375,1.75,1.9674999999999998
Na2 Co6,1.001411048935797,2.0,0.5623351446188083,49.9473381205,3.75,7.0,1418.736,30.75,4.0,1.6424999999999998
Na2 Cr1 N2,0.22497657960679046,3.0,1.054920167986144,25.1979397128,2.8,7.6000000000000005,609.6376,-101.76000000000002,3.6,1.9200000000000002
Na2 Cr2 N2,0.5308926992933762,3.0,1.0986122886681098,29.66430976066667,2.9999999999999996,7.333333333333333,871.3646666666666,-78.66666666666666,3.9999999999999996,1.8766666666666665
Na2 Cr2 N4,0.22207713278766428,3.0,1.0397207708399179,25.7499823205,2.75,9.25,669.311,-106.25,4.25,2.1675
Na2 Fe2 N2,0.42163092599956564,3.0,1.0986122886681098,30.947323093999998,2.9999999999999996,8.0,748.3646666666666,-73.77777777777777,3.9999999999999996,1.9333333333333333
Na2 Li1 Ta1,0.41717475956885347,3.0,1.0397207708399179,58.466855140999996,3.5,2.0,1121.3845000000001,58.5,2.0,1.085
Na2 Mg12 Cr2,0.27872291973633934,3.0,0.7356219397587946,27.60199116025,3.125,2.375,1011.118,17.1875,2.375,1.3062500000000001
Na2 Mg12 Mn2,0.25592496547519533,3.0,0.7356219397587946,27.96972669775,3.125,2.5,928.493,10.5625,2.5,1.2925000000000002
Na2 Mg12 V2,0.21907101095219134,3.0,0.7356219397587946,27.47015991025,3.125,2.25,1011.493,16.9375,2.25,1.3025000000000002
Na2 Mn2 Bi2,0.6154298611083469,3.0,1.0986122886681098,95.63607152733333,4.333333333333333,7.666666666666666,811.548,14.22222222222222,4.333333333333333,1.5
Na2 Mn2 N2,0.5391183304199703,3.0,1.0986122886681098,30.644937860666666,2.9999999999999996,7.666666666666666,651.0313333333332,-93.77777777777777,4.333333333333333,1.8399999999999999
Na2 Mn2 Sb2,0.6314711394023291,3.0,1.0986122886681098,66.56263786066667,4.0,7.666666666666666,931.2413333333334,7.999999999999997,4.333333333333333,1.5099999999999998
Na2 Sr1 Fe1,0.26238190446646903,3.0,1.0397207708399179,47.361434641,3.75,3.0,900.722,38.5,2.5,1.1600000000000001
Na24 Co8 N16,0.3006823240426073,3.0,1.0114042647073518,25.986083707666666,2.833333333333333,7.0,501.1886666666666,-97.0,3.0,1.7916666666666665
Na24 Fe8 N16,0.5601289869681443,3.0,1.0114042647073518,25.471417974333335,2.833333333333333,6.833333333333333,508.35533333333336,-92.66666666666667,3.1666666666666665,1.7833333333333332
Na24 Mn8 N16,0.5640089613296786,3.0,1.0114042647073518,25.32022535766667,2.833333333333333,6.666666666666666,459.6886666666667,-104.11111111111111,3.333333333333333,1.7366666666666666
Na24 V8 N16,0.24564121581037363,3.0,1.0114042647073518,24.65413630766667,2.833333333333333,6.333333333333333,570.3553333333333,-101.44444444444444,3.0,1.75
Na3 Co1,0.1839854684010951,2.0,0.5623351446188083,31.975625561500003,3.25,3.0,720.2080000000001,30.75,2.0,1.1675
Na3 Cr1,0.49539037089556137,2.0,0.5623351446188083,30.241366961500002,3.25,2.25,823.2080000000001,53.25,2.25,1.1125
Na3 Fe1,0.3288059000701239,2.0,0.5623351446188083,31.2036269615,3.25,2.75,730.9580000000001,46.5,2.25,1.155
Na3 Mn1,0.4396577754250805,2.0,0.5623351446188083,30.976838036500002,3.25,2.5,657.9580000000001,36.75,2.5,1.085
Na3 Mo1,0.44536521598714657,2.0,0.5623351446188083,41.230076961500004,3.5,2.25,1002.2080000000001,69.75,2.25,1.2375
Na3 Nb1,0.4164809982754185,2.0,0.5623351446188083,40.468919961500006,3.5,2.0,965.7080000000001,69.75,2.0,1.0975000000000001
Na3 Os1,0.20186210536931806,2.0,0.5623351446188083,64.8005769615,3.75,2.75,1104.708,39.0,2.75,1.2475
Na3 Re1,0.39401370606629527,2.0,0.5623351446188083,63.794101961500004,3.75,2.5,1142.958,54.75,2.5,1.1724999999999999
Na3 Ta1,0.40307002019643046,2.0,0.5623351446188083,62.479297461499996,3.75,2.0,1100.708,66.75,2.0,1.0725
Na3 Tc1,0.3654306002172526,2.0,0.5623351446188083,41.7423269615,3.5,2.5,885.7080000000001,35.25,2.5,1.1724999999999999
Na3 W1,0.47098546479511244,2.0,0.5623351446188083,63.2025769615,3.75,2.25,1201.958,72.75,2.25,1.2875
Na4 Ca4 N12,0.7021117352641645,3.0,0.9502705392332346,21.017833856400003,2.6,9.6,335.0788,-164.0,3.6,2.21
Na4 Co4 N4,0.216552168576529,3.0,1.0986122886681098,31.976654560666667,2.9999999999999996,8.333333333333332,734.0313333333332,-77.77777777777777,3.6666666666666665,1.95
Na4 Cr4 N4,0.34448533776031953,3.0,1.0986122886681098,29.66430976066667,2.9999999999999996,7.333333333333333,871.3646666666666,-78.66666666666666,3.9999999999999996,1.8766666666666665
Na4 N4,0.41669753557482303,2.0,0.6931471805599453,18.498384641,2.5,8.0,217.047,-141.0,3.0,1.985
Na6 Fe2,0.3107290163026947,2.0,0.5623351446188083,31.2036269615,3.25,2.75,730.9580000000001,46.5,2.25,1.155
Na6 Os2,0.21911453452481455,2.0,0.5623351446188083,64.8005769615,3.75,2.75,1104.708,39.0,2.75,1.2475
Na6 Re2,0.36092342965268015,2.0,0.5623351446188083,63.794101961500004,3.75,2.5,1142.958,54.75,2.5,1.1724999999999999
Na6 Ru2,0.18955770564303823,2.0,0.5623351446188083,42.5103269615,3.5,2.75,929.9580000000001,33.0,2.75,1.2475
Na6 Tc2,0.335441279963705,2.0,0.5623351446188083,41.7423269615,3.5,2.5,885.7080000000001,35.25,2.5,1.1724999999999999
Na6 Ti2,0.2945233395399518,2.0,0.5623351446188083,29.209101961500004,3.25,1.75,763.4580000000001,51.0,1.75,1.0825
Na8 H8 N8,0.2348983738754123,3.0,1.0986122886681098,12.668256427333334,2.0,5.666666666666666,149.36133333333333,-77.77777777777777,2.333333333333333,2.0566666666666666
Na8 Mn4 H32 N16,0.4033897686948143,4.0,1.1369165918330006,11.0006388576,1.7333333333333334,5.133333333333333,175.0272,-46.4,2.466666666666667,2.2113333333333336
Nb1 Al1 Co2,0.44309841439793246,3.0,1.0397207708399179,59.4385748425,4.0,9.0,1804.8675,-26.5,4.5,1.7425
Nb1 Co1,0.6999641081283448,2.0,0.6931471805599453,75.9197832,4.5,7.0,2259.0,-25.0,5.0,1.74
Nb1 Co1 Sn1,0.24803275386589121,3.0,1.0986122886681098,90.18342213333332,4.666666666666666,9.333333333333332,1674.36,-11.555555555555555,4.666666666666667,1.8133333333333335
Nb1 Co2 Sn1,0.38135799983392893,3.0,1.0397207708399179,82.3708652,4.5,9.25,1697.77,-12.75,4.75,1.83
Nb1 Cr1 Co1,0.7126943419073997,3.0,1.0986122886681098,67.94524213333332,4.333333333333333,6.666666666666666,2232.6666666666665,-16.0,5.333333333333333,1.7133333333333332
Nb1 Fe1 Ru2,0.9321480305589248,3.0,1.0397207708399179,87.723893,4.75,7.25,2443.75,-27.0,6.75,1.9575
Nb1 Fe3,1.2595113365858626,2.0,0.5623351446188083,65.110493,4.25,7.25,2045.75,-12.0,5.75,1.7725
Nb1 Fe6 Ge6,0.9517405304457774,3.0,0.9110175397125629,66.44325938461539,4.076923076923077,10.53846153846154,1606.4923076923078,-20.662721893491124,5.0,1.8953846153846154
Nb1 Ga1 Co2,0.4450872463332449,3.0,1.0397207708399179,70.1239652,4.25,9.0,1647.22865,-20.0,4.5,1.7925
Nb1 Ni3,0.23502713739942152,2.0,0.5623351446188083,67.246673,4.25,8.75,1983.5,-22.5,4.25,1.8325
Nb1 Zn1 Co2,0.23834052018336382,3.0,1.0397207708399179,69.0386902,4.25,8.75,1744.67,-15.25,4.25,1.7525
Nb13 Fe13,0.4956923279683759,2.0,0.6931471805599453,74.375786,4.5,6.5,2280.5,-16.0,5.5,1.715
Nb16 Fe8 N4,0.46333589556193416,3.0,0.9556998911125344,71.04612685714287,4.285714285714286,7.285714285714285,2097.8785714285714,-81.46938775510203,5.285714285714286,1.8714285714285712
Nb18 Fe6 Ge4,0.1987061588068668,3.0,0.8921178708188162,82.068182,4.642857142857142,6.928571428571429,2328.9857142857145,-24.122448979591837,5.071428571428571,1.707857142857143
Nb19 Fe20,0.5345164714395356,2.0,0.6928184134311288,73.90064276923077,4.487179487179487,6.538461538461538,2268.461538461538,-15.989480604865218,5.512820512820513,1.7179487179487178
Nb2 Al2 Co8,0.305724020002127,3.0,0.8675632284814613,59.270114695,4.0,9.0,1792.5783333333331,-21.555555555555557,4.666666666666666,1.7883333333333333